669
Lattice="28.2 0.0 0.0 0.0 39.48 0.0 0.0 0.0 62.32960834" Properties=species:S:1:pos:R:3:forces:R:3 energy=-174025383.880717 free_energy=-174025383.880717 pbc="T T T"
Au       7.57941193      14.97384744      -0.17454638       0.22702792      -0.84762372       0.29231892
Au      10.45744354      14.74095763       0.18068291      -0.19974386       0.57484001      -1.11344057
Au      13.27288850      14.76777535       0.30710124      -0.45422443       0.82429992      -1.74843695
Au      16.07286139      14.87307333       0.04616645      -0.85674780      -0.10595355      -0.90440296
Au      18.76848130      14.95900173       0.01958938       0.67718242      -0.63022518      -0.18474509
Au      21.63286704      14.72924391       0.02822664      -0.28483871       0.49211167       0.20981306
Au      24.42994806      14.88614971      -0.09760061      -0.83990472      -1.21960694       0.18423104
Au      27.18724107      14.80232109       0.14089653       0.46626853      -0.05154574      -1.15122903
Au       1.83269735      14.82291381       0.20235365      -0.07027764      -0.00531239      -0.53431516
Au       4.83836415      14.88306723      -0.00102460      -0.42445009      -0.26505763      -0.32081494
Au       8.80416551      17.42936818       0.21313605       0.84233318      -1.21138775      -0.51060859
Au      11.68062515      17.30747595      -0.01313936      -0.25827983      -0.26995228      -0.28873578
Au      14.44390340      17.35333203      -0.00821195       0.57758422       0.01614316      -0.27247114
Au      17.30106688      17.38888521      -0.15989914       0.22627973      -0.77761155       0.24640033
Au      20.21798416      17.28595799       0.02362907      -0.03245976      -0.28592306       0.15264294
Au      22.99900671      17.33457171      -0.05931061       0.12577099      -0.62193975      -0.02960576
Au      25.81095786      17.12435728      -0.02144978       0.13111207       1.71189313      -0.31003318
Au       0.40856988      17.32173583      -0.03537271       0.21185302       0.43230465       0.11727254
Au       3.24225933      17.25412468       0.15397264      -0.28401196       0.26334307      -0.40990830
Au       6.05099365      17.33272549       0.03747600       0.25042400       0.23475265      -0.29843677
Au       7.65266835      19.82483989       0.07391990      -1.73879354       0.42949239      -0.14985658
Au      10.25715019      19.72880180      -0.01855689       1.23092821       0.77623482      -0.03989774
Au      13.07865074      19.74685492       0.16087090       0.56594815       0.78336581      -0.25349368
Au      16.14370759      19.78067453      -0.12261530      -1.71539162       0.41508589       0.12540409
Au      18.80178435      19.67294792       0.08265108       1.05837699       0.92359509      -0.14929441
Au      21.65491598      19.67933094       0.09676704      -0.84548177       1.23980728      -0.03233414
Au      24.32675633      19.86122158       0.14531702       0.29959176      -0.75675725      -0.03554384
Au      27.11984758      19.85642037      -0.02553365       1.56424408      -2.05838222       0.02073381
Au       2.04972493      19.91263914      -0.03015762      -1.18300596      -0.25541758       0.33232199
Au       4.72250774      19.75739212       0.12650562       0.42395345       0.74971545      -0.43533203
Au       8.96130629      22.30525657       0.17692596      -0.00126709      -1.20521205      -0.69232502
Au      11.67714456      22.31712777       0.05315808       1.09228937      -1.15184319       0.00063379
Au      14.65191175      22.24330127       0.18622057      -0.82541525      -0.86188382      -0.45590702
Au      17.46973348      22.28390720       0.07906383      -0.51420561      -0.53460496       0.13045321
Au      20.09581127      22.40986664       0.05760774       1.35133809      -1.31480780       0.26492259
Au      23.02129591      22.32627084      -0.04151276      -0.23086225      -0.72057710       0.12572878
Au      25.91887130      22.07335196      -0.01886634      -1.13164138       2.08562989       0.11738695
Au       0.43418803      22.28390787      -0.08449449       0.41279140      -0.66813944       0.09803085
Au       3.42684667      22.40913246       0.22010126       0.12742545      -1.15783805      -0.51947258
Au       6.22578324      22.31542554       0.07403208      -1.62638344      -2.51365825      -0.40131354
Au       7.40840498      24.49393587       0.10705675       1.65998580       3.23440353      -0.06221441
Au      10.33686174      24.63219987       0.13125204      -0.36309071       1.73021504      -0.41592564
Au      13.16750114      24.73675000       0.08580945      -0.00034937      -0.69888973      -0.00840595
Au      15.97068274      24.59712132       0.12674224       0.16302045       0.66646906      -0.16370940
Au      18.82097603      24.73416391      -0.10127742       0.28581375       0.32154186       0.23290393
Au      21.75076708      24.70941057       0.05998784      -0.71978631       0.94788663      -0.12249720
Au      24.59858715      24.65656813       0.23159498      -1.33035950       0.34804129      -0.88287974
Au      27.16370607      24.69785513      -0.02478911       1.78843164      -0.30627529       0.05519481
Au       1.79880691      24.57453391       0.11870375       0.17012961       1.72478265      -0.16685967
Au       4.72686133      24.80980104       0.29402407      -0.94879675       0.00597173      -0.36747146
Au       8.98828205      27.38106261       0.22498162      -0.11993733      -1.75700422      -0.46304531
Au      11.79404900      27.06636347      -0.09402521      -1.07523335      -0.00864492       0.04927912
Au      14.49951561      27.09984273      -0.08743398       0.98028815       0.53554126      -0.08636751
Au      17.36763425      26.97253365       0.00516844      -0.60100681       1.09809137       0.22437984
Au      20.10438830      27.30191220       0.08842105       1.16609899      -1.56941104      -0.18414457
Au      22.96592142      27.33412687      -0.16063765       0.18203517      -1.05767738       0.42237749
Au      25.90220484      27.03912060      -0.00892121      -0.40332331       1.45107667       0.14556225
Au       0.56395841      27.28683184      -0.10879413      -1.20489655      -1.71228257      -0.07166912
Au       3.31932747      27.26110311       0.02977892       0.26535960      -1.73325639      -0.13620025
Au       6.15667500      27.09812521       0.12090327       0.36401890       0.42921550       0.04292639
Au       7.51536188      29.65110299      -0.07893750      -0.11330294       0.06124726       0.28118138
Au      10.41185094      29.62820948      -0.08302580      -1.39544342       0.49191119       0.07809587
Au      12.95470447      29.51197284      -0.16225567       2.40987701       0.37891230       0.10895764
Au      15.93752664      29.72352876       0.09262307       0.06835335      -1.02419657      -0.00467589
Au      18.78924990      29.52229750       0.05478857      -0.97187411       1.36924160       0.15524088
Au      21.53786397      29.74463950      -0.13390168       0.32585212       0.06569922       0.15156520
Au      24.39099120      29.59550644      -0.20850726       0.65214119       0.21862456       0.38721215
Au      27.22733264      29.65746879       0.08918712      -0.49904199       0.02370901       0.14978519
Au       1.87478161      29.54183839       0.06080649       0.10069783       2.26376957      -1.05885091
Au       4.69489141      29.51883973      -0.01642845       0.56373279       1.20052371       0.05663836
Au       8.93811903      32.14119148      -0.05467629       0.47677653      -0.53063199       0.13304880
Au      11.82407690      32.02199178       0.03033442      -0.33846331       0.98126030      -0.09417917
Au      14.60038832      32.08773964      -0.01712622      -0.34524254      -0.05375490      -0.02378398
Au      17.45475578      32.14135051       0.13836963      -0.48532684      -0.85479797      -0.25542887
Au      20.15919738      32.15773754       0.05362643       0.89408635      -1.21996916      -0.13921853
Au      23.11734042      32.04623325      -0.33373626      -1.09238588       0.23326599       0.25922297
Au      25.70343105      32.23085214       0.03970736       1.66144583      -0.86882799      -0.18226794
Au       0.42587002      32.09377644      -0.12249408      -0.47477753      -0.40843555       0.12230310
Au       3.25143468      32.07052317      -0.05469338       0.61291081      -0.51020303       0.13286156
Au       6.20631279      32.07194882      -0.06150771      -1.26807999      -0.08653026       0.09121248
Au       7.45439763      34.53015388       0.01524991      -0.35300929       0.26763827      -0.08195179
Au      10.26325327      34.51169642      -0.09405788       1.09503029      -0.32966088       0.18264534
Au      13.25547879      34.58389410      -0.10332030      -0.33578949       0.17775991       0.40027149
Au      16.05901328      34.45236496      -0.02910202       0.06145041       0.89511644       0.30892781
Au      18.97669209      34.52032522      -0.11715952      -0.92083672       1.09947565       0.19175430
Au      21.70479780      34.44291417       0.01575805       0.48355124       0.85694778      -0.10876056
Au      24.52511313      34.63768499      -0.08193765      -0.70943599       0.41077943       0.05333656
Au      27.32985217      34.68265352      -0.12004404      -0.25771528      -0.52723568       0.24958137
Au       1.78476375      34.42627714      -0.02951566       0.50811404       1.04849667       0.24562059
Au       4.54686051      34.56280432      -0.02504439       0.58130608      -0.01449358       0.32040676
Au       8.98685555      36.85707655       0.05169393      -0.72072344       1.15178974      -0.35229744
Au      11.76930329      37.02292157      -0.00849055       0.43940518      -0.27451291      -0.15822223
Au      14.86763776      37.11642745      -0.07408932      -2.62104701      -2.66709870       0.15766892
Au      17.46741207      37.00206884      -0.05558886       0.91707279      -0.53500677       0.15896684
Au      20.20691297      37.12069412       0.14343954      -0.80639569      -2.28454060      -0.66314997
Au      23.00136795      37.20417804       0.00971009       0.38337867      -2.46736605      -0.30470938
Au      25.92052209      37.00943083       0.15325610      -0.25084572      -0.20735227      -0.57290645
Au       0.55841136      37.14505098      -0.03616377      -1.19231165      -1.44304135      -0.03926923
Au       3.14821040      37.09811978       0.08237365       1.65219325      -0.93862740      -0.39527160
Au       6.04432699      37.02500534       0.09728444       0.19739888      -0.13521950      -0.33703741
Au       7.61161740       0.05085745       0.12516418      -0.96791542      -0.98413796      -0.30793019
Au      10.31987678       0.14522700       0.14126870       0.85222492      -1.96583814      -0.53159106
Au      13.18491441      -0.08165526      -0.00092268      -0.15769619       0.50389353       0.31168593
Au      15.95069177      -0.13854401       0.06194025       1.19737809       3.14286711       0.15706590
Au      18.77298442       0.06050088       0.02436974      -0.77542457       0.18667012      -0.13623999
Au      21.48290646      -0.17678816       0.05935093       1.26577130       2.99729031      -0.18531506
Au      24.48257544      -0.11207007      -0.00893454      -0.32942934       1.81362203      -0.08984354
Au      27.23335107      -0.06167235       0.03946101      -0.11029413       1.15335011      -0.02434346
Au       1.80777388      -0.01463789       0.09179579       0.43316664       1.47920792      -0.18713930
Au       4.69287134       0.01794045       0.12116557      -0.09737829      -0.39308168      -0.47049853
Au       8.95832772       2.37971075       0.11809064      -0.53680070       1.60185800      -0.34304482
Au      11.73437001       2.38443802       0.00857323       0.29495833       1.02714866       0.09995058
Au      14.43561689       2.56022859       0.11010765       1.00628736      -0.84467636      -0.14905533
Au      17.58360628       2.63414216      -0.12224868      -1.62079437      -2.38971114       0.06820909
Au      20.29568696       2.37948564      -0.09314288      -0.88844899      -0.13828532      -0.01548596
Au      22.90444403       2.59048492       0.03573150       1.92138522      -2.31477617      -0.08331553
Au      25.80726103       2.53927922       0.16313333      -0.41342411      -0.13715244      -0.31052506
Au       0.34787278       2.48812224       0.07726544       0.17473543      -0.34292049       0.16206253
Au       3.24053774       2.54224466      -0.06016452      -0.64884478      -1.70824076      -0.05533121
Au       5.95259254       2.40018516       0.16770253       1.06409197       0.03791683      -0.43311382
Au       7.48632918       4.82335282       0.19077208      -0.57750245       0.43036207      -0.65435216
Au      10.27596084       4.95408859      -0.06228563       0.96688305      -1.30878439       0.17071412
Au      13.16264523       5.00319031       0.18854525      -0.54947124      -0.90348067      -1.15955114
Au      16.06943795       4.87673769       0.09016997      -1.06805858       0.23434317       0.02627217
Au      18.70629148       4.90232078       0.00097504       2.10704164       0.98043350       0.19829158
Au      21.58224732       4.79164561       0.24069710      -0.94806564       2.18874347      -0.86649207
Au      24.25240382       4.98556786       0.19179981       1.31438713       0.07595104      -0.30552335
Au      27.26478205       5.07373656      -0.12030352      -0.99681731      -1.61155194       0.33191712
Au       1.83178548       4.77831143      -0.04316675      -0.28266091       1.32386638       0.30521523
Au       4.62777167       4.75575832       0.10226015       0.60762968       1.78780591       0.05803924
Au       8.95858961       7.18493341      -0.01199182      -0.03965715       2.07431556      -0.00054378
Au      11.85663985       7.31817183       0.05655655      -0.84547391       0.79051995       0.10030960
Au      14.68086993       7.33242770       0.17338903       0.08658129       0.63727480      -0.46157395
Au      17.52819650       7.31994970       0.13688650      -0.62895751       0.66937460       0.08422772
Au      20.32150698       7.29753563       0.08173665      -0.07288846      -0.16894064      -0.30985530
Au      23.11992300       7.46617139      -0.15587314      -0.67290071      -0.21042276       0.15990004
Au      25.79792294       7.40589380       0.18491727       0.01119057      -0.19258489      -0.63709919
Au       0.30488358       7.32255929      -0.00227463       1.77728093       1.23305191       0.15446603
Au       3.29194129       7.31628656       0.17069652      -0.20939502       0.39873964      -0.47562199
Au       6.21878851       7.52696648       0.23219305      -0.38254558      -1.44952918      -0.54715641
Au       7.55376280       9.88790523       0.06121955       1.51830038      -0.24023159      -0.39557107
Au      10.46137505       9.99377977      -0.05307168      -1.75464806      -2.13278515       0.02681629
Au      13.13466250       9.78815075       0.26036272       0.60596353      -0.99594587      -0.59284964
Au      15.98463358       9.86923834      -0.00581473       0.41780819      -0.13007258       0.02909610
Au      18.96260641       9.74931285       0.09637055      -1.07060069       0.45551721      -0.17845883
Au      21.69252540       9.88529093       0.12340258      -0.35903799      -0.43721598      -0.79270826
Au      24.43316408       9.95829779       0.11727998       0.31675587       0.05079024      -0.38390049
Au      27.23073326       9.80035342      -0.04009782      -0.01784340       0.04751096       0.12548325
Au       1.85191273       9.97685147      -0.01397654       0.54164619      -0.84850943       0.06435723
Au       4.87879701       9.90646355      -0.04290368      -1.77395863      -0.41821095      -0.16459176
Au       8.93585484      12.38940098       0.03863786      -0.30265254       0.01441264      -0.19849650
Au      11.80765481      12.15766704       0.04121715      -1.43409655       1.91796900      -0.50238851
Au      14.32365620      12.29337421       0.13823907       3.00589868      -0.34343902      -1.00730880
Au      17.26361070      12.36418184      -0.04395158       0.06959971      -0.34031130       0.31228277
Au      20.01095325      12.32967877       0.02761300       0.35241091       0.22367639      -0.08048150
Au      22.85705579      12.27791015      -0.19700057       0.81701675       0.77207257       0.29792144
Au      25.84489315      12.34488216       0.11643130      -1.53957397      -0.16558733      -0.58824397
Au       0.28311762      12.24206763       0.17778666       1.54340988       0.51031757      -0.83964618
Au       3.35711016      12.48629931       0.03502013      -0.58243414      -0.70365650      -0.49042369
Au       6.13830970      12.24422695       0.13230720       0.37564526       1.54492399      -0.19974449
Au       7.46441383      13.02736722       2.80995704       0.01988842       2.00308245      -0.11585296
Au      10.33805904      13.20534452       2.45961528       0.28006785      -0.65939536       0.87756409
Au      13.20992091      13.22830529       2.49789769      -1.36367560      -0.51904647       1.79198145
Au      15.82713241      13.23005229       2.47366843       1.50949447      -1.35643923       0.23709716
Au      18.87436866      13.22062757       2.66812181      -1.06981359      -1.01405209      -0.05959128
Au      21.51297680      13.03529123       2.60764350       1.37116569       1.54592393      -0.24845591
Au      24.44788994      13.16005456       2.66274755      -0.83568425      -0.04258745      -0.09806504
Au      27.17577232      13.17252522       2.45413768       0.19760950      -1.01443403       1.41329922
Au       1.86059879      13.21353786       2.59474473      -0.53978786      -0.32015519       0.35210181
Au       4.53158273      13.34944328       2.45012033       1.89592192      -1.48225768       0.69426985
Au       9.04537292      15.54867734       2.51416519      -0.76942947       0.71493469       0.50996304
Au      11.90104936      15.84092662       2.51805866      -1.43937573      -1.93924649       0.73258180
Au      14.68475932      15.73167670       2.53596873      -1.46679820      -1.78391254       0.81881605
Au      17.38308585      15.48247960       2.47699963       0.70466759       1.24864149       0.84051212
Au      20.14483897      15.67538273       2.79805431       0.75891512       0.10839293      -0.53024341
Au      23.09529113      15.68400249       2.65741544      -1.49449266      -1.79662769      -0.14968749
Au      25.84090459      15.59550910       2.70719246      -1.06182950      -0.28124461       0.28149008
Au       0.20654543      15.52737743       2.59381717       2.45776968       1.41943823       0.54599658
Au       3.27817382      15.60307870       2.60208823      -0.67100364       1.76920772       0.49863197
Au       6.19920603      15.63842767       2.63344951      -0.06524366      -0.35902226       0.03130323
Au       7.47799625      18.04826033       2.67463243       0.33272158       0.02004801       0.49258147
Au      10.34536397      18.26315933       2.63413866      -1.62315897      -1.42548252      -0.01304743
Au      13.02654193      18.08099412       2.65206662       2.01151567       1.22893219       0.42203931
Au      15.82914223      17.90121492       2.63792013       1.71328150       2.96281815      -0.01738516
Au      18.85516708      18.17515710       2.66441742      -0.32581929      -1.27352212       0.02055545
Au      21.69132083      18.15107989       2.68037492      -0.32525564      -0.42141730      -0.18186021
Au      24.42729643      17.86733290       2.54890860       0.04939158       2.30850405       0.17952772
Au      27.10985840      18.11162974       2.44199140       1.03200346       0.21374699       0.27229997
Au       1.75064526      18.18980363       2.59581500      -0.07147814      -0.34531805      -0.01384997
Au       4.69240264      18.15496255       2.49602509      -0.50251342      -0.58989018       0.82593580
Au       8.72590169      20.58441393       2.78871752       1.49294719      -0.42117359      -0.10494669
Au      11.74248304      20.40361256       2.72138567      -0.10798115       2.69149183       0.02674459
Au      14.52606404      20.66773793       2.78487146      -0.07292381      -1.23895185      -0.29383473
Au      17.33129927      20.35234358       2.53624426      -0.22288328       1.18531828       0.36361644
Au      20.27541468      20.54312985       2.74609263      -0.73273728       0.99708410      -0.24295278
Au      23.00356483      20.64121720       2.82229197       0.37574888      -0.10743443      -0.29178597
Au      25.75933151      20.50767594       2.67660762      -0.49986049       0.44702570       0.16321037
Au       0.27229784      20.73018802       2.71780855       1.44863902      -1.82461761      -0.24333831
Au       3.26953685      20.58399262       2.83758834      -0.15004542      -0.07212682      -0.26335823
Au       6.06948704      20.52869636       2.63516832      -0.39122767      -0.02322729       0.27998982
Au       7.49242816      22.96297868       2.70282623       1.47939167       0.46076280       0.42719164
Au      10.23225160      23.11725679       2.53569914       1.29690335      -1.07722984       1.06022864
Au      13.12973135      23.10414220       2.59674734      -0.88319439      -0.17246478       0.12082149
Au      15.88174394      23.00462605       2.67396498       0.92052289       0.11486574       0.13098185
Au      18.66981545      23.21276950       2.79797930       0.88558015      -1.68669982      -0.41622007
Au      21.55791572      23.13773615       2.65666397      -0.84333502      -0.75446076      -0.04218483
Au      24.35950437      23.16252271       2.54051286       1.41393529      -2.40259022       0.65989370
Au      27.32888118      23.00383370       2.63587841      -1.11652360       1.32285385      -0.13902009
Au       2.01435172      22.98044905       2.55039507      -0.34255451       0.08956646       0.76037254
Au       4.99131327      23.09478019       2.72926052      -3.07806971      -0.46274391       0.32923489
Au       8.95150004      25.41721904       2.75131604      -0.54236795       0.85732877      -0.14968348
Au      11.67600996      25.64137347       2.76445669       0.30430552      -0.70380237      -0.12465564
Au      14.64285068      25.52355596       2.70510676      -1.16366409      -1.12594780       0.02927551
Au      17.35660627      25.46564901       2.87853745       0.04084764       0.85188984      -0.29446166
Au      20.18465385      25.66208363       2.75148334       0.55335714      -0.65403354      -0.25968214
Au      23.07031049      25.35235430       2.59246954      -0.73645345       2.94034817       0.39917092
Au      25.93558670      25.53199915       2.76982493      -0.34737893      -0.23252668       0.02266738
Au       0.47769431      25.44228873       2.77490731      -0.13004721       0.48409332      -0.27664510
Au       3.16092000      25.52268896       2.77536102       0.91780756       0.44972743      -0.10762505
Au       6.07638685      25.50754906       2.75899311       0.04457198       1.10768161       0.27118866
Au       7.60965788      27.82377431       2.67400242      -1.22023696       0.93386808       0.19169494
Au      10.28864605      28.09990313       2.69823144       1.14580566      -0.17323190       0.20164437
Au      13.16012965      27.85601206       2.49615061      -0.68337910       1.00288997       0.15968193
Au      15.85088414      27.79672345       2.53553469       1.40465205       1.69423190      -0.07299771
Au      18.85382148      27.96721795       2.71009444      -0.82686192       0.16753819      -0.09779531
Au      21.69884983      28.06751119       2.53314997      -0.62089223      -2.62683002      -0.18838756
Au      24.49180256      28.05291143       2.73685720      -0.20774797      -0.73734588      -0.53182186
Au      27.17606696      27.94065309       2.74265213       0.91704259       0.71929252      -0.32432326
Au       1.84861382      28.09859006       2.32753813      -0.53959451      -1.62247327       1.62065120
Au       4.60903661      28.20333783       2.80989515       0.64720909      -2.45424177      -0.11951464
Au       9.02558858      30.46236362       2.51465867      -0.81241964      -0.04452846       0.00270656
Au      11.90273484      30.59141032       2.61167510      -2.07093471      -1.70170681       0.22636520
Au      14.43910974      30.40225639       2.54645634       1.98029443      -0.85740814       0.09955300
Au      17.32405813      30.26620737       2.74697993      -0.00886078       0.49969453      -0.32163663
Au      20.31558572      30.38901745       2.75655860      -1.77701517       0.85785947      -0.34421933
Au      22.88544347      30.23323817       2.91137838       2.32836795       3.02029884      -0.31509095
Au      25.84714321      30.55390262       2.69899549      -0.79000389      -1.21904256      -0.20684778
Au       0.53349415      30.48271420       2.63010091      -1.16913915      -1.36451712       0.07281994
Au       3.26335218      30.43169595       2.63691594       0.22879080       1.02037068      -0.05799541
Au       6.00113147      30.40628374       2.73249868       1.50746620       0.62259466      -0.56947466
Au       7.46092566      32.83388398       2.52408218       0.42101222       0.10933640       0.10125088
Au      10.35340393      32.84169518       2.82291388      -0.30322320       0.49762754      -0.49962703
Au      13.25771590      32.82776614       2.68291600      -0.83102132       1.90840724      -0.43925039
Au      15.87589720      32.86730810       2.72939417       1.29388400       0.11183538      -0.26569060
Au      18.69890548      32.86791676       2.53265693      -0.26781200       0.03633824       0.51341008
Au      21.39116465      33.03824864       2.67597635       1.47190924      -1.74875798       0.10820221
Au      24.40173568      32.95722977       2.47299661      -0.48548764      -0.65469716       0.24731015
Au      27.27204457      32.72542685       2.62147836       0.07600164       2.03174512      -0.03190889
Au       1.84681540      32.72532835       2.53000829       0.48230936       2.19018394       0.08884882
Au       4.69973249      32.95657892       2.72229261      -0.21726625      -0.12825151      -0.27194830
Au       8.91654364      35.38307561       2.65919710      -0.08363130      -0.69003549       0.11105312
Au      11.59556626      35.28157053       2.53540874       1.32447459      -0.01300879      -0.04060959
Au      14.62860967      35.39934408       2.70711318      -0.16457319      -0.19839177      -0.47139669
Au      17.46099624      35.46233302       2.65687147      -0.33577607      -0.31603591      -0.39838714
Au      20.30073442      35.38121676       2.59877908      -1.44217621       0.23473324       0.00614439
Au      23.07054857      35.27292185       2.57343522       0.34540227       0.75121047       0.03551534
Au      26.00657573      35.38855144       2.64782741      -1.55351692      -0.44939683      -0.00587628
Au       0.36242494      35.47228248       2.81400112       1.61487845      -0.77606076      -0.35456951
Au       3.27220960      35.35574200       2.64826062       0.05558958      -0.57270894      -0.07942706
Au       6.20068090      35.39362117       2.69878058      -0.89103749      -0.65703287      -0.09487915
Au       7.47276893      37.79544044       2.57172051       0.82980734       0.64472501       0.06544152
Au      10.32168446      37.80478261       2.43469582       0.34216839       0.19207681       0.70646158
Au      13.19638340      37.70686734       2.53099721      -0.11047876       0.93712781       0.02873680
Au      16.04228085      37.98725157       2.82681421      -0.58487700      -1.57682100      -0.18120066
Au      18.78185812      37.97498052       2.60315101      -0.29139989      -0.92020546       0.15805194
Au      21.49690550      37.70887537       2.61937865       1.41122250       0.78196985       0.73019834
Au      24.36520653      37.81698025       2.49693416      -0.00610431      -0.11685227       0.60066802
Au      27.25321735      37.93760952       2.54813374       0.13329500       0.09718106       0.66269606
Au       2.05579986      37.76765411       2.60315425      -1.09483152       0.66073366       0.38903142
Au       4.80258935      37.83425970       2.66242328      -0.59742619      -0.01173759       0.27542690
Au       8.98603887       0.78223655       2.64352099      -1.03802652       0.19346982       0.74345864
Au      11.62994753       0.90483027       2.81013988       1.79239276      -0.71666672      -0.19236041
Au      14.73093080       0.88765073       2.71877643      -2.84828614      -1.08307103      -0.31522435
Au      17.34652676       0.82738695       2.73699696       1.33180503       0.26006303      -0.14098625
Au      20.24995502       0.74295483       2.68659506      -0.37110438       0.98453119       0.05188916
Au      22.96553811       0.84281010       2.73668889      -0.51415099       0.06548869      -0.29008790
Au      25.58744469       0.88773802       2.66703487       1.42695502      -0.45840089       0.06720869
Au       0.49504355       0.79132222       2.72982042      -0.35176708       0.04546246      -0.09148999
Au       3.32523243       0.86326958       2.50031549      -0.08317504      -0.84307543       0.51364174
Au       6.13353424       0.87122250       2.66841937       0.40528075      -0.38705012       0.40737718
Au       7.51385485       3.36095869       2.50899591      -0.03888613      -0.31464203       0.91084441
Au      10.37194243       3.28546506       2.71562889      -0.59277695       0.36262095      -0.11773969
Au      13.15540280       3.47263569       2.68554683      -0.59804587      -2.28194711       0.24990417
Au      15.89067674       3.16142967       2.65946792       0.50372508       1.76232035      -0.03083481