669
Lattice="28.2 0.0 0.0 0.0 39.48 0.0 0.0 0.0 62.32960834" Properties=species:S:1:pos:R:3:forces:R:3 energy=-174025485.5486466 free_energy=-174025485.5486466 stress="0.0006170826512115427 3.9903940646427143e-07 -1.2497956455933185e-06 3.9903940646427143e-07 0.0011216894503883017 3.3072755247858887e-07 -1.2497956455933185e-06 3.3072755247858887e-07 4.839545709053361e-07" pbc="T T T"
Au       7.32303166      14.87391648      -0.23949290      -0.00032150       0.00014996      -0.00010489
Au      10.14355346      14.88368792      -0.26328640      -0.00000814      -0.00005697       0.00026030
Au      12.96459197      14.87415659      -0.23863621      -0.00006091      -0.00027858       0.00034603
Au      15.78590086      14.88420530      -0.25057229       0.00022676      -0.00003608       0.00024449
Au      18.60600679      14.87427554      -0.20300624      -0.00013462       0.00002959       0.00011328
Au      21.42345256      14.88403357      -0.21369458      -0.00009811       0.00008245      -0.00006776
Au      24.24071271      14.87398048      -0.19802289       0.00004112      -0.00010526       0.00024255
Au      27.05999230      14.88433522      -0.24669188       0.00007537       0.00007846      -0.00004934
Au       1.68142836      14.87449019      -0.23664916      -0.00011067      -0.00010042       0.00004177
Au       4.50221845      14.88392972      -0.26228413       0.00003364      -0.00003471       0.00006054
Au       8.72975319      17.35659905      -0.23257744      -0.00013848      -0.00000384      -0.00029068
Au      11.55653409      17.35694222      -0.23415719      -0.00002942       0.00006584      -0.00002690
Au      14.37018978      17.35664422      -0.23192396      -0.00013706       0.00000447       0.00030263
Au      17.19727438      17.35569447      -0.22038119       0.00007119      -0.00024286      -0.00001844
Au      20.01071419      17.35377095      -0.19514499      -0.00011808      -0.00001943      -0.00011604
Au      22.83664217      17.35363762      -0.19098418       0.00005501       0.00024915       0.00021633
Au      25.64919569      17.35538185      -0.21088283      -0.00001632      -0.00009223       0.00008788
Au       0.27576221      17.35734536      -0.22724759      -0.00009464      -0.00005654       0.00004518
Au       3.08941075      17.35700074      -0.23170895      -0.00004669      -0.00000159       0.00001463
Au       5.91625233      17.35695600      -0.23274158       0.00001852      -0.00006614      -0.00032109
Au       7.32299926      19.82195401      -0.13225548      -0.00006233       0.00009071      -0.00025634
Au      10.14279276      19.83569049      -0.18951737      -0.00004196       0.00013421      -0.00007579
Au      12.96296044      19.82212495      -0.13449836      -0.00015137       0.00012475       0.00000869
Au      15.78293106      19.83506395      -0.18748632       0.00014126      -0.00027895      -0.00014116
Au      18.60294697      19.81987335      -0.12427719      -0.00006032       0.00004656       0.00030896
Au      21.42338958      19.83079383      -0.16593544      -0.00008811       0.00011874       0.00006412
Au      24.24343704      19.81900851      -0.11468728      -0.00015010       0.00021153      -0.00000478
Au      27.06283418      19.83483425      -0.18031391       0.00000278      -0.00003023      -0.00019706
Au       1.68315540      19.82238839      -0.13152632      -0.00020231      -0.00006250       0.00002910
Au       4.50294449      19.83587552      -0.18833343       0.00011439      -0.00007129      -0.00006260
Au       8.73115161      22.29495713      -0.11843339      -0.00025025      -0.00016364      -0.00004802
Au      11.55470800      22.29540947      -0.12106632       0.00047706      -0.00026405       0.00004888
Au      14.37130573      22.29474429      -0.11889658      -0.00055701       0.00040572       0.00010904
Au      17.19485334      22.29402097      -0.11891967       0.00010202       0.00047367      -0.00003391
Au      20.01146406      22.29206504      -0.11457579       0.00006617      -0.00021265      -0.00000807
Au      22.83483180      22.29153475      -0.11036125       0.00010164      -0.00007058       0.00002711
Au      25.65099155      22.29303350      -0.11079351      -0.00062290      -0.00002506      -0.00027053
Au       0.27458930      22.29491335      -0.11711856       0.00031397      -0.00000944       0.00017976
Au       3.09116309      22.29520349      -0.11782251      -0.00046042      -0.00000080       0.00004831
Au       5.91474782      22.29522729      -0.11917555       0.00025441       0.00010615      -0.00006526
Au       7.32289166      24.75928109      -0.03544121      -0.00024972      -0.00003172      -0.00005286
Au      10.14294602      24.76395563      -0.07240273      -0.00002982       0.00010705      -0.00011455
Au      12.96303539      24.75936243      -0.03521490       0.00008718      -0.00035526      -0.00002222
Au      15.78308768      24.76329901      -0.07064743       0.00008156      -0.00006489      -0.00026772
Au      18.60310026      24.75790518      -0.03405517      -0.00015525      -0.00003141       0.00002211
Au      21.42286957      24.76148113      -0.06891384      -0.00002311      -0.00032605       0.00000428
Au      24.24253520      24.75693401      -0.02999660      -0.00015703      -0.00035465       0.00006131
Au      27.06248268      24.76286324      -0.06901246      -0.00006215      -0.00002683      -0.00005344
Au       1.68261604      24.75914690      -0.03397515      -0.00000733       0.00011731      -0.00003992
Au       4.50274971      24.76393046      -0.07223637       0.00006788       0.00000196       0.00017976
Au       8.73374050      27.21903006      -0.08916462      -0.00003672       0.00011867      -0.00007075
Au      11.55249041      27.21901712      -0.08881243       0.00011638       0.00007315      -0.00005043
Au      14.37398377      27.21867433      -0.08675068       0.00006390       0.00023489      -0.00011792
Au      17.19259364      27.21811762      -0.08694060      -0.00011087       0.00041601      -0.00000832
Au      20.01394263      27.21747446      -0.08593890      -0.00019037       0.00039714      -0.00007800
Au      22.83224645      27.21710517      -0.08557770       0.00000904       0.00005316      -0.00011713
Au      25.65329661      27.21753625      -0.08549558       0.00025647       0.00020941       0.00006135
Au       0.27198050      27.21843057      -0.08731109      -0.00011456      -0.00004195      -0.00014345
Au       3.09354757      27.21891993      -0.08826416      -0.00040596      -0.00009373       0.00004232
Au       5.91227465      27.21903051      -0.08983968       0.00006809      -0.00000348       0.00013256
Au       7.32292859      29.68750564      -0.11545256       0.00015227       0.00007815       0.00003619
Au      10.14313342      29.68296896      -0.12178943      -0.00015936      -0.00002896       0.00021524
Au      12.96313351      29.68720056      -0.11353826       0.00005290      -0.00003448      -0.00020379
Au      15.78330365      29.68227546      -0.11896302      -0.00011763      -0.00016239      -0.00035755
Au      18.60319986      29.68643877      -0.11282535       0.00000980      -0.00042149       0.00009849
Au      21.42322410      29.68147719      -0.11870625      -0.00026469       0.00015908       0.00005155
Au      24.24286482      29.68600647      -0.11165204      -0.00001999       0.00032435      -0.00029325
Au      27.06276165      29.68208368      -0.11938655       0.00015155      -0.00045270      -0.00004144
Au       1.68276150      29.68704430      -0.11396092      -0.00015353       0.00024649      -0.00010731
Au       4.50296544      29.68293646      -0.12173708      -0.00010005      -0.00005243       0.00002276
Au       8.73625574      32.14870590      -0.18697127      -0.00003400      -0.00026518       0.00011484
Au      11.55007542      32.14829982      -0.18615601      -0.00016140       0.00012762      -0.00006599
Au      14.37644720      32.14801955      -0.18548842      -0.00019714       0.00013983       0.00009917
Au      17.19015585      32.14758778      -0.18480340       0.00007304       0.00010831       0.00002153
Au      20.01641833      32.14744497      -0.18465357       0.00018904       0.00019622      -0.00003241
Au      22.83001716      32.14723465      -0.18376960       0.00009592      -0.00023664      -0.00001471
Au      25.65611854      32.14760056      -0.18392980      -0.00009579      -0.00004907      -0.00020451
Au       0.26976948      32.14787736      -0.18528353       0.00005961       0.00003382       0.00014260
Au       3.09608912      32.14844511      -0.18637174      -0.00021721      -0.00004909      -0.00001660
Au       5.90988035      32.14854987      -0.18672506       0.00000626      -0.00018475      -0.00016392
Au       7.32285724      34.62321690      -0.26836850       0.00019261       0.00049330      -0.00002891
Au      10.14315442      34.61338999      -0.24510518      -0.00032348      -0.00011874       0.00003413
Au      12.96310156      34.62281117      -0.26740970       0.00013547      -0.00013177      -0.00015019
Au      15.78326095      34.61269448      -0.24374430      -0.00012153       0.00030092       0.00008001
Au      18.60312026      34.62223844      -0.26615043       0.00031595       0.00019252       0.00002153
Au      21.42319717      34.61232809      -0.24218477      -0.00018655       0.00023688       0.00009035
Au      24.24292094      34.62215999      -0.26470389      -0.00012856       0.00024208      -0.00020386
Au      27.06292113      34.61272845      -0.24235375       0.00009246      -0.00009482       0.00001362
Au       1.68274098      34.62290812      -0.26652255      -0.00015886       0.00001222      -0.00015891
Au       4.50288993      34.61343673      -0.24483732      -0.00011064       0.00029454       0.00008510
Au       8.73628836      37.09685871      -0.24074495      -0.00008574      -0.00011841      -0.00000875
Au      11.54979014      37.09635395      -0.23932052      -0.00007926       0.00028385      -0.00005171
Au      14.37645122      37.09627819      -0.23926394      -0.00015866       0.00009666       0.00005059
Au      17.18985254      37.09584063      -0.23733646      -0.00008128      -0.00013039       0.00006190
Au      20.01638852      37.09586300      -0.23666771       0.00007071      -0.00034007      -0.00001534
Au      22.82964886      37.09555914      -0.23515570      -0.00005342      -0.00011862      -0.00011661
Au      25.65618820      37.09595513      -0.23651606      -0.00007847       0.00009902      -0.00014904
Au       0.26949622      37.09601966      -0.23685158      -0.00000693       0.00017736      -0.00028284
Au       3.09609268      37.09672836      -0.23938800       0.00022728      -0.00002031      -0.00014134
Au       5.90961102      37.09671229      -0.23987142       0.00001043      -0.00017335      -0.00011356
Au       7.32277793       0.09619029      -0.19665391      -0.00020049      -0.00014321      -0.00002319
Au      10.14286505       0.08233650      -0.14080250       0.00007163       0.00006082      -0.00005255
Au      12.96276553       0.09565331      -0.19519027       0.00014661      -0.00011168       0.00004873
Au      15.78284078       0.08168232      -0.13857764      -0.00015048       0.00000379       0.00008943
Au      18.60278029       0.09499298      -0.19222840      -0.00002407       0.00013784      -0.00014109
Au      21.42279514       0.08107860      -0.13524135       0.00029744       0.00023387      -0.00029923
Au      24.24271374       0.09489296      -0.19182286      -0.00012665       0.00022781       0.00013045
Au      27.06279266       0.08152955      -0.13713668       0.00001955       0.00041780      -0.00004489
Au       1.68261765       0.09568488      -0.19460293      -0.00003422       0.00002171       0.00009934
Au       4.50278962       0.08250088      -0.14105831      -0.00006783       0.00001838       0.00022338
Au       8.73459525       2.55605778      -0.12598701      -0.00000416       0.00000059       0.00002328
Au      11.55098592       2.55554264      -0.12392466      -0.00005625       0.00017037      -0.00012549
Au      14.37450954       2.55533629      -0.12416823      -0.00013302      -0.00000612       0.00010409
Au      17.19085742       2.55465808      -0.12209653      -0.00002531      -0.00012612       0.00030760
Au      20.01450086       2.55441739      -0.12132277       0.00023003      -0.00004115      -0.00015702
Au      22.83091338       2.55425109      -0.12009427      -0.00015359      -0.00026354      -0.00003775
Au      25.65448928       2.55477944      -0.12202298       0.00034049      -0.00015085      -0.00011811
Au       0.27086947       2.55511563      -0.12238554      -0.00020820      -0.00007174      -0.00005556
Au       3.09438294       2.55589829      -0.12524929       0.00020612       0.00002198      -0.00004603
Au       5.91091484       2.55594182      -0.12536915      -0.00024355      -0.00005689       0.00022809
Au       7.32264259       5.02507326      -0.07649476      -0.00010935       0.00036138       0.00001114
Au      10.14278076       5.02029210      -0.03894980      -0.00003544       0.00006744      -0.00002003
Au      12.96282031       5.02459574      -0.07498725      -0.00000753      -0.00003244      -0.00014478
Au      15.78267979       5.01939455      -0.03696045       0.00007078       0.00037883       0.00001936
Au      18.60258157       5.02336129      -0.07295151      -0.00008598       0.00045191       0.00006567
Au      21.42257549       5.01850622      -0.03479244       0.00001589       0.00004800      -0.00010253
Au      24.24258412       5.02329365      -0.07224698      -0.00005646       0.00008479       0.00004374
Au      27.06246888       5.01941170      -0.03633727       0.00006895      -0.00015354       0.00001023
Au       1.68233500       5.02471527      -0.07482962      -0.00004410      -0.00020307      -0.00014355
Au       4.50245368       5.02043498      -0.03929449      -0.00008899      -0.00005691       0.00002353
Au       8.73241810       7.48036933      -0.09072303      -0.00022161      -0.00019751       0.00027867
Au      11.55416266       7.48026267      -0.08906286      -0.00014416       0.00010008      -0.00013068
Au      14.37284080       7.47993520      -0.08791247      -0.00003994      -0.00002833      -0.00032656
Au      17.19401957       7.47926189      -0.08576736       0.00016789      -0.00015506      -0.00016175
Au      20.01221367       7.47851647      -0.08611658      -0.00015180      -0.00016508       0.00019010
Au      22.83348571       7.47840690      -0.08515727      -0.00009851       0.00001032       0.00036430
Au      25.65157284       7.47911268      -0.08586605       0.00018445       0.00040828       0.00027697
Au       0.27274573       7.47994736      -0.08752851      -0.00001048       0.00002335       0.00005564
Au       3.09151809       7.48039813      -0.09029732       0.00006064      -0.00005202       0.00026592
Au       5.91329531       7.48038869      -0.09032486      -0.00001592       0.00011863       0.00031105
Au       7.32291834       9.94421170      -0.12074481      -0.00034297      -0.00009207       0.00011900
Au      10.14356270       9.94874137      -0.11369925       0.00016314      -0.00009672       0.00006450
Au      12.96435883       9.94430059      -0.11865925      -0.00010215      -0.00013940       0.00035224
Au      15.78447901       9.94852482      -0.10904112      -0.00004922       0.00005242       0.00016712
Au      18.60418660       9.94323766      -0.11169935      -0.00011576      -0.00020296       0.00021761
Au      21.42293734       9.94730896      -0.10374385       0.00023052       0.00019631       0.00002189
Au      24.24184743       9.94301900      -0.11030738       0.00019382       0.00019941       0.00008890
Au      27.06126008       9.94855685      -0.10816595      -0.00022027      -0.00017654       0.00011345
Au       1.68151664       9.94445246      -0.11867171      -0.00013960       0.00022524       0.00024550
Au       4.50206887       9.94890653      -0.11368358       0.00013475      -0.00031676       0.00013655
Au       8.73027118      12.40944912      -0.18349190       0.00004492      -0.00024401       0.00003325
Au      11.55761203      12.40964545      -0.18283122      -0.00006915       0.00035855       0.00023008
Au      14.37245820      12.41000549      -0.17738614      -0.00029684      -0.00012046      -0.00000245
Au      17.19916152      12.41003477      -0.16791076       0.00017653       0.00003869       0.00012914
Au      20.01148103      12.40966131      -0.15533295       0.00020865       0.00020127       0.00005056
Au      22.83508589      12.40972227      -0.15374598       0.00023031      -0.00036369       0.00008451
Au      25.64708024      12.40984733      -0.16444991      -0.00020201      -0.00039201      -0.00005979
Au       0.27364273      12.41039235      -0.17578706       0.00010687      -0.00019631       0.00006706
Au       3.08844268      12.40983055      -0.18184906      -0.00032399       0.00008832       0.00006612
Au       5.91571615      12.40969017      -0.18298689      -0.00014155      -0.00023320      -0.00024147
Au       7.32341346      13.27975030       2.44553113       0.00004287      -0.00012807      -0.00005832
Au      10.14320855      13.27453281       2.37074400      -0.00013276       0.00009094       0.00015511
Au      12.96308997      13.28018886       2.44730920       0.00028103       0.00022429       0.00006737
Au      15.78328835      13.27500925       2.38126138      -0.00031845      -0.00014253      -0.00015985
Au      18.60253815      13.27853501       2.47262628      -0.00028863       0.00005981       0.00003629
Au      21.42299464      13.27211645       2.40819781       0.00011850      -0.00021747      -0.00014260
Au      24.24383691      13.27789686       2.47699921       0.00015540      -0.00027711      -0.00027774
Au      27.06320170      13.27461097       2.38423639       0.00007265      -0.00022093      -0.00013576
Au       1.68370641      13.28015935       2.44883437      -0.00010883       0.00009222       0.00012157
Au       4.50335520      13.27467503       2.37159403      -0.00003996      -0.00020441       0.00001254
Au       8.73048108      15.72785318       2.35707385       0.00018906      -0.00042791      -0.00002793
Au      11.55473815      15.72821526       2.35524440      -0.00011840       0.00012358       0.00009021
Au      14.36951369      15.72886716       2.36053420       0.00009770      -0.00036064       0.00008636
Au      17.19456894      15.72947327       2.37781179      -0.00032832      -0.00027323      -0.00024511
Au      20.01089536      15.72819909       2.40824774       0.00029966       0.00003588      -0.00002327
Au      22.83433436      15.72779886       2.41055257      -0.00016367       0.00015236      -0.00008687
Au      25.65093996      15.72872617       2.38500040       0.00010684       0.00001479       0.00008142
Au       0.27636173      15.72880274       2.36167953       0.00007031      -0.00001130      -0.00000678
Au       3.09121183      15.72835178       2.35824392      -0.00017739      -0.00007243      -0.00010319
Au       5.91552710      15.72801984       2.35600782      -0.00013445      -0.00049905      -0.00024053
Au       7.32369528      18.17559857       2.45117019      -0.00004069       0.00052538      -0.00012388
Au      10.14295671      18.18882666       2.35635062       0.00003248       0.00047094      -0.00012355
Au      12.96224045      18.17633090       2.44962211      -0.00051301      -0.00004936       0.00008463
Au      15.78133131      18.18979814       2.36019923       0.00026315       0.00022594      -0.00009766
Au      18.60074926      18.17747056       2.46653960       0.00002152       0.00032025      -0.00017262
Au      21.42299474      18.18956943       2.39320359       0.00004571       0.00007365       0.00001424
Au      24.24553803      18.17689378       2.47785885      -0.00027981      -0.00028631       0.00012852
Au      27.06532599      18.18974767       2.36846487       0.00047167      -0.00008130      -0.00007400
Au       1.68513680      18.17659065       2.45285439      -0.00010291      -0.00009851      -0.00007703
Au       4.50424097      18.18904552       2.35739864      -0.00032901       0.00025208      -0.00003378
Au       8.73249591      20.64702775       2.47996794      -0.00009069      -0.00016169      -0.00038670
Au      11.55243786      20.64781597       2.47644645      -0.00026363      -0.00018749       0.00011917
Au      14.37100308      20.64744370       2.47949063      -0.00006827       0.00022360       0.00008926
Au      17.19102196      20.64851100       2.48094313       0.00021231      -0.00023236      -0.00020007
Au      20.01087714      20.64793227       2.48884865      -0.00004213      -0.00033077       0.00009520
Au      22.83378970      20.64796850       2.49360701      -0.00002039      -0.00001847      -0.00010758
Au      25.65434622      20.64779247       2.49089575      -0.00038754       0.00001886      -0.00012908
Au       0.27502419      20.64842536       2.48163999      -0.00006871      -0.00026927       0.00024465
Au       3.09374933      20.64761441       2.48048433       0.00013847      -0.00011938       0.00015273
Au       5.91368818      20.64766483       2.47872596       0.00008377       0.00010980      -0.00020906
Au       7.32336332      23.11176717       2.52658255      -0.00010286      -0.00024883      -0.00011310
Au      10.14297016      23.13114968       2.48477948       0.00005009       0.00016194       0.00015495
Au      12.96243097      23.11174412       2.52546365      -0.00023367       0.00002841      -0.00012491
Au      15.78214998      23.13118477       2.48610151      -0.00003662       0.00013515      -0.00017818
Au      18.60203983      23.11172687       2.52710914      -0.00009256       0.00002754       0.00004588
Au      21.42255116      23.13079929       2.48947886      -0.00016169      -0.00009061       0.00005612
Au      24.24345356      23.11147627       2.53409223      -0.00025615      -0.00015820      -0.00020310
Au      27.06406867      23.13139455       2.48938962       0.00041053       0.00034519       0.00009863
Au       1.68404849      23.11209957       2.52798317       0.00013818       0.00012678      -0.00000590
Au       4.50376709      23.13145455       2.48570838      -0.00007038      -0.00016710      -0.00012697
Au       8.73360194      25.60474916       2.57307459       0.00007898       0.00005030       0.00006227
Au      11.55070255      25.60526236       2.57347123       0.00006440       0.00002005       0.00009257
Au      14.37313308      25.60443830       2.57487325       0.00016081       0.00067950      -0.00011443
Au      17.19051829      25.60495855       2.57524131      -0.00061778       0.00016549      -0.00019849
Au      20.01303134      25.60402563       2.57599854       0.00022272       0.00005962      -0.00003861
Au      22.83058697      25.60459491       2.57701813       0.00012749       0.00017789      -0.00010275
Au      25.65377726      25.60428729       2.57709894      -0.00002799       0.00013773      -0.00000754
Au       0.27143092      25.60538871       2.57543303      -0.00033662      -0.00011034      -0.00024925
Au       3.09405098      25.60488038       2.57393259       0.00003325       0.00004516      -0.00004640
Au       5.91122481      25.60549556       2.57283376      -0.00018020       0.00011958       0.00013975
Au       7.32308027      28.07489310       2.49239028      -0.00015943       0.00007218       0.00006579
Au      10.14292364      28.09073238       2.51292831       0.00014434       0.00027797       0.00029499
Au      12.96274623      28.07466126       2.49427153      -0.00005585      -0.00024815      -0.00009784
Au      15.78283703      28.09030939       2.51590802      -0.00021201      -0.00064448      -0.00027533
Au      18.60275279      28.07421276       2.49516070       0.00021309       0.00020596       0.00020932
Au      21.42283231      28.08990636       2.51642717      -0.00001943       0.00003985      -0.00002423
Au      24.24289478      28.07398940       2.49640409       0.00009360      -0.00014346      -0.00015118
Au      27.06319717      28.09031615       2.51556074      -0.00017629      -0.00012861       0.00002339
Au       1.68326620      28.07476801       2.49412615       0.00018545      -0.00011782      -0.00016645
Au       4.50337153      28.09082998       2.51300081      -0.00039820       0.00018905       0.00009392
Au       8.73514104      30.55709805       2.48506594       0.00000298       0.00045888      -0.00011689
Au      11.55013808      30.55733321       2.48710947      -0.00033548      -0.00013491      -0.00008189
Au      14.37500093      30.55668970       2.48736863       0.00004151       0.00027140      -0.00019885
Au      17.19023403      30.55672664       2.48878088       0.00004890       0.00049265       0.00005158
Au      20.01511019      30.55620149       2.48776525      -0.00003475      -0.00017496       0.00026419
Au      22.83031189      30.55644462       2.48949759      -0.00004766      -0.00003681       0.00000991
Au      25.65532782      30.55627537       2.48825170      -0.00013439      -0.00000074      -0.00001710
Au       0.27052154      30.55701001       2.48796351       0.00001852       0.00023326      -0.00009030
Au       3.09542737      30.55702425       2.48577825       0.00005241      -0.00029017      -0.00002593
Au       5.91044670      30.55751280       2.48621715       0.00004428       0.00014707      -0.00001984
Au       7.32327792      33.01534166       2.36674140       0.00025384      -0.00026995      -0.00011383
Au      10.14327850      33.02051764       2.44134630      -0.00036378       0.00015489      -0.00006526
Au      12.96313532      33.01480441       2.36764018      -0.00002522       0.00009476       0.00002427
Au      15.78323365      33.01980687       2.44270368       0.00001879       0.00022366       0.00000813
Au      18.60322405      33.01417335       2.36876743      -0.00024156      -0.00005494       0.00020602
Au      21.42334206      33.01930884       2.44378904       0.00016663       0.00043428       0.00022596
Au      24.24337508      33.01407208       2.36993232      -0.00015130       0.00025711      -0.00001965
Au      27.06362501      33.01978452       2.44348244       0.00004730      -0.00001409       0.00016149
Au       1.68348932      33.01484430       2.36786151      -0.00020101       0.00009382       0.00010572
Au       4.50353172      33.02055259       2.44130784       0.00002137       0.00023239       0.00012365
Au       8.73520076      35.46854211       2.34932014      -0.00001733      -0.00007755       0.00005181
Au      11.55042357      35.46814746       2.35147451      -0.00048155      -0.00010239       0.00006361
Au      14.37506766      35.46778372       2.35063340       0.00055311      -0.00010842       0.00001955
Au      17.19043146      35.46730086       2.35287280      -0.00057300       0.00011745       0.00018253
Au      20.01515416      35.46707990       2.35233636       0.00016725       0.00011123       0.00021397
Au      22.83052129      35.46704444       2.35477484      -0.00013248      -0.00023501      -0.00005404
Au      25.65534224      35.46741926       2.35286401       0.00008827       0.00009784       0.00007862
Au       0.27066827      35.46779295       2.35373875       0.00001669      -0.00001532      -0.00021440
Au       3.09540315      35.46836663       2.35060876      -0.00022438      -0.00023281      -0.00016411
Au       5.91057666      35.46852703       2.35101633       0.00001648       0.00004477       0.00015545
Au       7.32337573      37.92900916       2.34920418      -0.00016732      -0.00026903       0.00015039
Au      10.14325957      37.91585065       2.44268571       0.00003614      -0.00039183       0.00018495
Au      12.96311959      37.92825802       2.35038911       0.00005725       0.00053067       0.00008116
Au      15.78308802      37.91488148       2.44467691      -0.00018432      -0.00001896       0.00012059
Au      18.60306310      37.92742409       2.35299222       0.00024836       0.00004943      -0.00004513
Au      21.42322385      37.91420273       2.44793204       0.00013267       0.00009192      -0.00019539
Au      24.24338479      37.92753434       2.35384550      -0.00018696       0.00001928       0.00001701
Au      27.06361489      37.91502833       2.44648367      -0.00020749      -0.00033740       0.00006292
Au       1.68350737      37.92847219       2.35136125       0.00003256       0.00013122       0.00017992
Au       4.50359500      37.91599081       2.44276863      -0.00003680       0.00023084       0.00026448
Au       8.73297938       0.90721339       2.47054223      -0.00000628       0.00008801       0.00029124
Au      11.55212894       0.90634075       2.47289555       0.00013861      -0.00000111       0.00013625
Au      14.37261567       0.90631205       2.47252813       0.00015154       0.00009186       0.00002960
Au      17.19196001       0.90528735       2.47539981      -0.00012677       0.00033896      -0.00016391
Au      20.01275553       0.90529901       2.47589536      -0.00011136       0.00013949      -0.00022873
Au      22.83242985       0.90491580       2.47727144      -0.00016258      -0.00020353       0.00012636
Au      25.65324420       0.90589569       2.47491384       0.00015556      -0.00031493      -0.00010891
Au       0.27274223       0.90595497       2.47494851      -0.00019120       0.00006876       0.00011366
Au       3.09327862       0.90702813       2.47136440       0.00024301      -0.00024738       0.00013604
Au       5.91251740       0.90681761       2.47172462      -0.00037556      -0.00019837       0.00039325
Au       7.32291429       3.39045291       2.47932673       0.00002363       0.00002882       0.00019840
Au      10.14272985       3.37082512       2.52132838      -0.00020397      -0.00006161      -0.00008064