669
Lattice="28.2 0.0 0.0 0.0 39.48 0.0 0.0 0.0 62.32960834" Properties=species:S:1:pos:R:3:forces:R:3 energy=-174025462.910226 free_energy=-174025462.910226 pbc="T T T"
Au       7.50525276      14.81855607       0.05228644      -0.00933132       0.00099493      -0.02539288
Au      10.32408900      14.82523004      -0.01630953       0.01510754       0.00582149      -0.01378129
Au      13.14627665      14.81836300       0.05258116      -0.01554926      -0.00273565      -0.02635527
Au      15.96478020      14.82464211      -0.01174760       0.01407544       0.00557412      -0.01368985
Au      18.78663956      14.81798127       0.05703655      -0.00909102      -0.00160853      -0.01972122
Au      21.60534721      14.82531937      -0.00946606       0.00870128       0.00238321      -0.00682040
Au      24.42660417      14.81809299       0.05874906      -0.01309901       0.00359513      -0.01114561
Au      27.24391083      14.82653604      -0.01054260       0.01664726      -0.00198681      -0.00908914
Au       1.86600309      14.81817733       0.05607961      -0.01298470       0.01115125      -0.01576932
Au       4.68486124      14.82642323      -0.01595111       0.00435262       0.00066587      -0.01046086
Au       8.91199331      17.28982095       0.03438765      -0.00019205       0.00817403      -0.01143352
Au      11.73757688      17.28993730       0.03311119      -0.00198487       0.00194606      -0.02113755
Au      14.55248346      17.28935843       0.03037438       0.00575223       0.00594494      -0.01865156
Au      17.37864312      17.28931408       0.03342134      -0.00541854       0.00001192      -0.01910142
Au      20.19313110      17.28908252       0.03757647       0.00484028       0.00743905      -0.01912904
Au      23.01807231      17.28970796       0.03993237       0.00597401      -0.00173378      -0.00739189
Au      25.83355183      17.28981436       0.04252248      -0.00918175       0.00883822      -0.01003968
Au       0.45651186      17.29059948       0.04222934       0.01660139      -0.00107447      -0.00479972
Au       3.27299581      17.29077707       0.04200144      -0.01028919       0.00237512      -0.00817481
Au       6.09678589      17.29018615       0.04027312       0.00523734       0.00858847      -0.01272416
Au       7.50506937      19.76016188       0.11035333      -0.00470452      -0.01061897      -0.01165153
Au      10.32502793      19.76416459       0.05551786       0.00226745      -0.00410282      -0.00875122
Au      13.14615292      19.76013335       0.09889079      -0.01333126      -0.01293311      -0.02412658
Au      15.96459074      19.76357449       0.04995184       0.01259709      -0.00594038      -0.02085509
Au      18.78571850      19.75884645       0.10329317      -0.00021227      -0.00542843      -0.02669935
Au      21.60607333      19.76316404       0.05865067      -0.00143206      -0.00089208      -0.00638793
Au      24.42584666      19.75943358       0.11115828      -0.00054510      -0.00824369      -0.00964922
Au      27.24493620      19.76389529       0.06494497       0.00602404      -0.00393335      -0.00272457
Au       1.86535578      19.76008842       0.11439594      -0.00528591      -0.00702842      -0.00473411
Au       4.68479168      19.76444784       0.06608965       0.00504545      -0.00450907      -0.00467071
Au       8.91409139      22.22326484       0.08617400       0.00541607       0.00321366      -0.00939882
Au      11.73572685      22.22337189       0.07861889      -0.00477002       0.00369464      -0.01828653
Au      14.55455188      22.22257299       0.07625637       0.00436684       0.01288690      -0.03004609
Au      17.37574378      22.22326830       0.07888775       0.00035114      -0.00020127      -0.03183006
Au      20.19482728      22.22262723       0.08171510       0.00601942       0.00719383      -0.01996272
Au      23.01596142      22.22318925       0.08618614       0.00059752      -0.00292567      -0.00420955
Au      25.83509932      22.22236310       0.08815516      -0.00503618       0.00972417      -0.00459931
Au       0.45510089      22.22345064       0.08981133       0.00706203      -0.00443790       0.00157055
Au       3.27442399      22.22277493       0.09096347       0.00065384       0.00593469      -0.00084115
Au       6.09571361      22.22360526       0.08991213      -0.00404247      -0.00125473      -0.00594812
Au       7.50481132      24.69301375       0.09808368       0.00197513       0.00216332      -0.00431990
Au      10.32537635      24.69078139       0.10137484       0.00044816      -0.00010137      -0.02318470
Au      13.14527515      24.69323170       0.09038426      -0.00032723       0.00240774      -0.01788836
Au      15.96569290      24.69067437       0.09800347      -0.00371557       0.00204677      -0.04486998
Au      18.78493330      24.69334910       0.09279415       0.00962303      -0.00299272      -0.01814748
Au      21.60628351      24.69012448       0.10207432      -0.01269540       0.00123969      -0.02012029
Au      24.42456180      24.69297681       0.09719954       0.01237402      -0.00280670      -0.00104175
Au      27.24552817      24.68958414       0.10431674      -0.00577533       0.00333776      -0.00487114
Au       1.86491733      24.69255301       0.09893949       0.00343350       0.00362602      -0.00021021
Au       4.68547133      24.69006884       0.10568868      -0.00481572       0.00046963      -0.00517626
Au       8.91685967      27.15262927       0.06857136       0.00376710       0.00972653      -0.01043062
Au      11.73293863      27.15409980       0.06808354       0.00075604       0.00054328      -0.01825740
Au      14.55768291      27.15362613       0.06816839       0.00091772       0.00636989      -0.03366155
Au      17.37308073      27.15366153       0.06828596      -0.00016452       0.00439420      -0.03041328
Au      20.19720422      27.15284001       0.06887112       0.00480307       0.00986990      -0.01818623
Au      23.01308185      27.15289140       0.06877610       0.00014260       0.00418605      -0.00965422
Au      25.83708391      27.15217024       0.06881346      -0.00162434       0.00979851      -0.00706243
Au       0.45236456      27.15288654       0.06794924       0.00620290       0.00003759      -0.00210739
Au       3.27688622      27.15217221       0.06819749       0.00181954       0.00800648      -0.00450598
Au       6.09345486      27.15309080       0.06879070      -0.00410165       0.00250933      -0.00641390
Au       7.50452693      29.62493614       0.01253803       0.01180602      -0.00058904      -0.00485079
Au      10.32602716      29.61877605       0.06556459      -0.01015335      -0.00245428      -0.01758881
Au      13.14476290      29.62573076       0.01394822       0.00964938      -0.00161360      -0.00646027
Au      15.96638896      29.61873054       0.06762732      -0.01110335       0.00058927      -0.03775473
Au      18.78455945      29.62552180       0.01447000       0.01171607      -0.00483731      -0.00557242
Au      21.60626990      29.61840728       0.06665398      -0.01470844      -0.00354681      -0.01899174
Au      24.42419424      29.62511648       0.01332882       0.01223115      -0.00513145      -0.00296143
Au      27.24568293      29.61823798       0.06502364      -0.01003650      -0.00534608      -0.01121959
Au       1.86438802      29.62479551       0.01153055       0.00880019      -0.00150607       0.00038268
Au       4.68588013      29.61859648       0.06357537      -0.01043713      -0.00739935      -0.00970555
Au       8.91741147      32.08884518       0.01526319       0.00551347       0.00518454      -0.01315331
Au      11.73270632      32.08927026       0.01700197      -0.00185324       0.00482783      -0.01543188
Au      14.55769872      32.08902458       0.01809861       0.00574138       0.00460314      -0.01854796
Au      17.37280912      32.08915174       0.01864364      -0.00457277       0.00457447      -0.01759831
Au      20.19744600      32.08857135       0.01823793       0.00678986       0.00977119      -0.01747248
Au      23.01258189      32.08862287       0.01774055      -0.00287795       0.00671917      -0.01442742
Au      25.83774672      32.08830153       0.01684916      -0.00119947       0.01045046      -0.01340044
Au       0.45163640      32.08873937       0.01552701       0.00707920       0.00535573      -0.01085793
Au       3.27760189      32.08846114       0.01458368      -0.00073960       0.00882419      -0.01167214
Au       6.09253010      32.08886455       0.01488366      -0.00178666       0.00603147      -0.01252309
Au       7.50420494      34.56644299      -0.01114612       0.01419948       0.00191757      -0.00829925
Au      10.32621746      34.55892226       0.05727822      -0.01257294       0.00031040      -0.01440730
Au      13.14471632      34.56627022      -0.00928495       0.00996795       0.00305009      -0.00856114
Au      15.96605385      34.55864445       0.05953861      -0.00951539       0.00367242      -0.01899316
Au      18.78455739      34.56630327      -0.00825608       0.01179265      -0.00011146      -0.00900370
Au      21.60638607      34.55883480       0.05941176      -0.01551163      -0.00311861      -0.01392769
Au      24.42418868      34.56634603      -0.00913188       0.01442756      -0.00078971      -0.00679615
Au      27.24590052      34.55875142       0.05843635      -0.01259124      -0.00258770      -0.01390115
Au       1.86438233      34.56633127      -0.01108060       0.01044721       0.00068892      -0.00495011
Au       4.68597982      34.55917835       0.05639617      -0.01180834      -0.00399141      -0.01230757
Au       8.91711827      37.03081947       0.04010836       0.00638400      -0.00162341      -0.00427237
Au      11.73273815      37.03031392       0.04086121      -0.00062958       0.00540071      -0.00555764
Au      14.55748470      37.03055203       0.04138823       0.00417569      -0.00293511      -0.00644444
Au      17.37322864      37.03028235       0.04197661      -0.00724027       0.00019209      -0.00767808
Au      20.19709430      37.03014512       0.04156540       0.00819128       0.00291315      -0.00604389
Au      23.01285784      37.02987417       0.04189801      -0.00368906       0.00553965      -0.00550283
Au      25.83756498      37.03016263       0.04145624      -0.00015182       0.00242472      -0.00782482
Au       0.45198639      37.02991800       0.04108200       0.00693404       0.00863656      -0.00583265
Au       3.27757383      37.03041710       0.03996813      -0.00089106       0.00385819      -0.00590328
Au       6.09289461      37.03017506       0.04057880      -0.00331930       0.00845361      -0.00848347
Au       7.50483404       0.02369788       0.06323400       0.00578019       0.00311875      -0.00345372
Au      10.32573938       0.01956986       0.11159398      -0.00499120      -0.00071271      -0.00456856
Au      13.14505584       0.02366218       0.06302495       0.00382091      -0.00005454      -0.00134306
Au      15.96554446       0.01891420       0.11150907      -0.00482544       0.00577373      -0.00451456
Au      18.78474190       0.02318886       0.06297262       0.00867507       0.00243278      -0.00361943
Au      21.60596577       0.01903900       0.11114720      -0.01130436      -0.00046852      -0.00271114
Au      24.42459556       0.02330321       0.06301813       0.00901792       0.00221569      -0.00390208
Au      27.24521268       0.01913926       0.11135210      -0.00334637      -0.00066067      -0.00574362
Au       1.86512827       0.02372983       0.06263239       0.00164120      -0.00008193      -0.00248924
Au       4.68558564       0.01979587       0.11116184      -0.00400642      -0.00438896      -0.00548811
Au       8.91551962       2.48368954       0.08896780       0.00507856      -0.00643110       0.00076178
Au      11.73494690       2.48270799       0.08898920      -0.00213549       0.00643828       0.00048355
Au      14.55543556       2.48355171       0.08835510       0.00714318      -0.00741279       0.00081796
Au      17.37516211       2.48279455       0.08783379      -0.00829370       0.00057878      -0.00057117
Au      20.19507967       2.48319713       0.08738388       0.00899048      -0.00385466       0.00084433
Au      23.01466364       2.48262701       0.08760491      -0.00364159       0.00266429      -0.00066466
Au      25.83541367       2.48324229       0.08761243       0.00079986      -0.00336521      -0.00388379
Au       0.45396187       2.48267486       0.08769330       0.00607086       0.00600793      -0.00412803
Au       3.27569871       2.48326475       0.08773229      -0.00201044       0.00036922      -0.00281661
Au       6.09488814       2.48283127       0.08928167      -0.00188801       0.00557006      -0.00666003
Au       7.50587090       4.94981236       0.10507876      -0.00591687       0.00393925      -0.00655027
Au      10.32536027       4.95262492       0.09836102       0.00700424       0.00146090      -0.00135423
Au      13.14644628       4.94968648       0.10548639      -0.01011025       0.00208622      -0.00131481
Au      15.96507499       4.95283242       0.09871310       0.00616898       0.00010807      -0.00346176
Au      18.78528784       4.94940474       0.10428041       0.00067090       0.00550391      -0.00264112
Au      21.60536599       4.95266996       0.09763691      -0.00359594      -0.00007293      -0.00073201
Au      24.42494239       4.94964290       0.10360631       0.00033757       0.00150197      -0.00319000
Au      27.24428074       4.95260021       0.09663880       0.00535289      -0.00074801      -0.00240830
Au       1.86528758       4.95000858       0.10301980      -0.00439779      -0.00278274      -0.00701659
Au       4.68488188       4.95255114       0.09617183       0.00447916       0.00209812      -0.00095893
Au       8.91371772       7.41308978       0.06688913      -0.00114463      -0.00601456      -0.00608987
Au      11.73791276       7.41229404       0.06937952       0.00285494       0.00235586      -0.00541155
Au      14.55363132       7.41272717       0.07115871       0.00105755      -0.00349245      -0.00491953
Au      17.37740891       7.41228387       0.07100874       0.00048787       0.00255765      -0.00476913
Au      20.19290972       7.41304233       0.06984900       0.00301776      -0.00556701      -0.00063422
Au      23.01670850       7.41217615       0.06925298      -0.00018391       0.00372675      -0.00475447
Au      25.83228467       7.41268815       0.06725855       0.00263081      -0.00137942      -0.00461008
Au       0.45638510       7.41192647       0.06574973       0.00171044       0.00687452      -0.00895108
Au       3.27252063       7.41303630       0.06387055       0.00233823      -0.00475254      -0.00879523
Au       6.09747975       7.41249460       0.06435261      -0.00004922      -0.00027030      -0.00930094
Au       7.50592231       9.87873146       0.05695420      -0.00631711      -0.01215276      -0.01662219
Au      10.32494988       9.88382088       0.00970176       0.01626305       0.00395566      -0.00525087
Au      13.14759418       9.87800469       0.06729795      -0.02026707      -0.00511292      -0.01496856
Au      15.96477293       9.88381907       0.01609672       0.01744337       0.00555845      -0.00221728
Au      18.78635663       9.87753680       0.06938787      -0.01236521       0.00083131      -0.01171642
Au      21.60465554       9.88449430       0.01454529       0.00768117      -0.00087915       0.00030885
Au      24.42526625       9.87768956       0.06536949      -0.00720036      -0.00018316      -0.01058532
Au      27.24346170       9.88445182       0.00943280       0.01243183      -0.00338920      -0.00445425
Au       1.86561473       9.87810902       0.05787843      -0.01337289      -0.00574956      -0.01705347
Au       4.68499351       9.88442442       0.00460581       0.00393636      -0.00378193      -0.00954705
Au       8.91198944      12.34883674       0.00867199       0.00829773      -0.00331696      -0.01728106
Au      11.73853831      12.34825076       0.01301272      -0.00225936      -0.00248002      -0.02008282
Au      14.55242019      12.34852162       0.01747700       0.00808897      -0.00225616      -0.01976125
Au      17.37879051      12.34866358       0.01924933      -0.00369963      -0.00701642      -0.01671100
Au      20.19263052      12.34848026       0.01870633       0.00270333      -0.00057413      -0.01272664
Au      23.01759518      12.34866171       0.01790988       0.00325590      -0.00236153      -0.01230116
Au      25.83226277      12.34924507       0.01515980      -0.00176812      -0.00494137      -0.01596754
Au       0.45735133      12.34891507       0.01225172       0.00045454      -0.00152316      -0.01780314
Au       3.27191696      12.34920109       0.00761268       0.00226326      -0.00334558      -0.01852872
Au       6.09792880      12.34822982       0.00696872      -0.00426093       0.00557774      -0.02209743
Au       7.50463631      13.18066877       2.65533248       0.00857857       0.00156286      -0.00433082
Au      10.32560438      13.18468954       2.55011473      -0.00602007      -0.00351041       0.02661016
Au      13.14447110      13.18217219       2.66335681       0.00764907       0.00251422      -0.02947615
Au      15.96567542      13.18558913       2.55834460      -0.00660356      -0.00634056       0.01820300
Au      18.78504102      13.18195145       2.66863524       0.00475604       0.00805580      -0.01893325
Au      21.60599080      13.18469858       2.56076957      -0.00623259       0.00032666       0.01061596
Au      24.42565653      13.18051921       2.66739190       0.00003987       0.01372093      -0.01116206
Au      27.24556069      13.18379538       2.55496416       0.00057429       0.00388826       0.01633973
Au       1.86589217      13.18023729       2.65964291      -0.00142901       0.00401072      -0.00148282
Au       4.68588837      13.18349725       2.54712955      -0.00537341       0.00291254       0.02252380
Au       8.91613942      15.64255353       2.63541848      -0.01105850       0.00175863       0.00255386
Au      11.73368461      15.64338744       2.63575987       0.01505376      -0.00546290       0.00191932
Au      14.55614645      15.64449935       2.63456473      -0.01268366      -0.00756125       0.01148921
Au      17.37373990      15.64444373       2.63954224       0.01443861      -0.00688395       0.00471376
Au      20.19628352      15.64410402       2.64160305      -0.01210536      -0.01128517       0.00493251
Au      23.01344758      15.64378751       2.64560988       0.02191630      -0.00688156      -0.01040221
Au      25.83736031      15.64329921       2.64482314      -0.02020889      -0.01087170       0.00340283
Au       0.45349774      15.64228981       2.64391425       0.01863658       0.00145926      -0.00505759
Au       3.27669787      15.64218376       2.64093019      -0.01085677      -0.00166981       0.00276934
Au       6.09419183      15.64163461       2.63822290       0.00711054       0.00179018       0.00569898
Au       7.50573054      18.09547396       2.69316539       0.00324438      -0.01338597      -0.01847048
Au      10.32582195      18.11432104       2.60165430      -0.00384674       0.00948703       0.02524845
Au      13.14535616      18.09593555       2.68239951      -0.00000831      -0.00945855      -0.01938146
Au      15.96511193      18.11501665       2.59782642      -0.00066487       0.01329606       0.03961210
Au      18.78448284      18.09589632       2.68775973       0.00469134      -0.01086234      -0.03274329
Au      21.60534630      18.11445184       2.60773260      -0.00311760       0.01317683       0.01986418
Au      24.42550258      18.09588089       2.69679311      -0.00294111      -0.00892868      -0.01777480
Au      27.24517839      18.11452429       2.61373465       0.00526239       0.00794434       0.00931205
Au       1.86593619      18.09570055       2.69866769      -0.00427681      -0.01278984      -0.01309548
Au       4.68584906      18.11391552       2.61291813       0.00079640       0.00758056       0.00919793
Au       8.91734245      20.57709037       2.71374871      -0.00232712      -0.01100150      -0.00152697
Au      11.73386921      20.57733605       2.70589229       0.00636983      -0.01390186       0.01282464
Au      14.55667402      20.57754385       2.70163358      -0.00502529      -0.01736434       0.01075273
Au      17.37346986      20.57744641       2.70481667       0.00188930      -0.01627076       0.00557387
Au      20.19584406      20.57738830       2.70924594       0.00233568      -0.01746187       0.01078748
Au      23.01330783      20.57732985       2.71615330       0.00320047      -0.01158748      -0.00797941
Au      25.83669019      20.57727748       2.71784326      -0.00115211      -0.01235522       0.00457615
Au       0.45332854      20.57710534       2.72113366       0.00397934      -0.00464945      -0.00423724
Au       3.27673505      20.57712732       2.72103138       0.00182803      -0.00809190      -0.00013566
Au       6.09433664      20.57664465       2.71931399      -0.00307231      -0.00644517      -0.00091208
Au       7.50586278      23.03870365       2.68648725       0.00223167      -0.00439203       0.00452566
Au      10.32623214      23.06162237       2.68191617       0.00504656       0.01812227       0.01186226
Au      13.14615679      23.03847853       2.67686744      -0.00552943      -0.01616298      -0.00688883
Au      15.96450247      23.06210895       2.67604014       0.00713125       0.02802423       0.02264391
Au      18.78470440      23.03773043       2.67933747       0.00060605      -0.00969715      -0.00656295
Au      21.60493044      23.06175378       2.68496340      -0.00591652       0.01981666       0.00454208
Au      24.42510379      23.03830986       2.68736851      -0.00412555      -0.00173514      -0.00094383
Au      27.24437447      23.06225275       2.68887865       0.00632893       0.00828621       0.00263270
Au       1.86559074      23.03927453       2.69042126      -0.00457280      -0.00928854      -0.00006765
Au       4.68558084      23.06222619       2.69074755       0.00179223       0.00702458      -0.00066726
Au       8.91709588      25.52815054       2.71711029      -0.00570662      -0.00348652       0.00411407
Au      11.73369867      25.52809935       2.71454007       0.00416332      -0.00579771      -0.00281515
Au      14.55683448      25.52783029       2.71262447      -0.00028479      -0.00336133       0.01216408
Au      17.37296397      25.52834700       2.71388687       0.00078549      -0.00521452       0.01132254
Au      20.19598139      25.52823883       2.71690424       0.00380654      -0.01059280      -0.00836179
Au      23.01364680      25.52833702       2.71806647      -0.00099195      -0.00352785       0.00534408
Au      25.83565390      25.52798233       2.71897753       0.00710351      -0.00615565      -0.00161116
Au       0.45416094      25.52773922       2.71922970      -0.00850680       0.00407019       0.00239114
Au       3.27540066      25.52793483       2.71989629       0.01131653      -0.00144291       0.00079782
Au       6.09427860      25.52790010       2.71932385      -0.00451053       0.00022396       0.00125783
Au       7.50514958      27.99101717       2.61715580       0.00476650       0.00034973       0.01232759
Au      10.32563766      28.00494111       2.70016128      -0.00138182       0.03132815      -0.03334464
Au      13.14613973      27.99068519       2.61612533      -0.00331931       0.00369817       0.04052659
Au      15.96449769      28.00493642       2.70081389       0.01005264       0.05041460      -0.07732666
Au      18.78548308      27.99071042       2.61805417      -0.00852545       0.00344023       0.03695492
Au      21.60511184      28.00533710       2.70123691       0.00406417       0.02957407      -0.03881377
Au      24.42568079      27.99046068       2.61786553      -0.00973126       0.00810619       0.01053254
Au      27.24436316      28.00596574       2.69967547       0.01188562       0.01029531      -0.01125973
Au       1.86594102      27.99052993       2.61681756      -0.00984185       0.00551006       0.00551320
Au       4.68517674      28.00582405       2.69930174       0.00149728       0.01135411      -0.01201168
Au       8.91426874      30.46291612       2.64460583       0.01210191      -0.00578499      -0.00257760
Au      11.73434259      30.46317308       2.64604412      -0.00856014      -0.00816065      -0.00844927
Au      14.55484805      30.46314809       2.64667466       0.01445350      -0.00647285       0.00032733
Au      17.37515898      30.46336855       2.64770545      -0.01878027      -0.00745361       0.00172587
Au      20.19441587      30.46324438       2.64670393       0.01740027      -0.01128137      -0.01310528
Au      23.01492560      30.46334384       2.64619707      -0.00865854      -0.01006608       0.00406443
Au      25.83474208      30.46286304       2.64447849       0.00589715      -0.00881637      -0.00554528
Au       0.45449767      30.46278026       2.64410040      -0.00135228      -0.00505602       0.00161914
Au       3.27465877      30.46265523       2.64263441       0.00628026      -0.00545596      -0.00176729
Au       6.09489765      30.46261474       2.64317234      -0.00882237      -0.00446812       0.00035091
Au       7.50493679      32.92439527       2.55653883       0.00193845       0.00265902       0.01425723
Au      10.32507511      32.92148764       2.66624099      -0.00026629       0.00417230      -0.01771622
Au      13.14576991      32.92462410       2.55959313      -0.00674557       0.00107658       0.01793206
Au      15.96470436      32.92181657       2.66854127       0.00729474      -0.00001693      -0.02532352
Au      18.78558444      32.92453583       2.56030220      -0.00445594       0.00354135       0.01958455
Au      21.60536870      32.92109701       2.66862936       0.00183017       0.01029205      -0.02079750
Au      24.42556116      32.92407895       2.55925410      -0.00400380       0.00822539       0.01173137
Au      27.24475905      32.92114567       2.66667750       0.00801760       0.00903994      -0.00932857
Au       1.86569259      32.92422582       2.55717663      -0.00622448       0.00453072       0.00859462
Au       4.68523903      32.92097836       2.66480542      -0.00019426       0.01006698      -0.00892119
Au       8.91306154      35.38303163       2.64307664       0.01114989       0.00063503      -0.00181343
Au      11.73537058      35.38327524       2.64434582      -0.00575955      -0.00553977       0.00170172
Au      14.55353353      35.38313225       2.64472314       0.00868097       0.00154178      -0.00149058
Au      17.37594977      35.38331189       2.64579878      -0.01162894      -0.00268647       0.00315496
Au      20.19294367      35.38341927       2.64538374       0.01687563      -0.00574659      -0.00443877
Au      23.01615646      35.38339050       2.64580736      -0.00925885      -0.00471028       0.00312764
Au      25.83381906      35.38354571       2.64437691       0.00481371      -0.00823067      -0.00230173
Au       0.45545531      35.38338447       2.64445494      -0.00039338      -0.00576242       0.00335571
Au       3.27357235      35.38336120       2.64272593       0.00744138      -0.00465434      -0.00164679
Au       6.09608010      35.38345697       2.64276425      -0.01131494      -0.00908858       0.00547267
Au       7.50484692      37.85470692       2.61092345       0.00402398       0.00731597       0.00810295
Au      10.32522761      37.83589871       2.69558998      -0.00304576      -0.00140499      -0.00291580
Au      13.14526146      37.85469937       2.61165790      -0.00196225       0.00707826       0.00673667
Au      15.96495622      37.83604432       2.69631596       0.00175520      -0.00464713      -0.00276287
Au      18.78516182      37.85485341       2.61151145       0.00122610       0.00619406       0.00908639
Au      21.60547099      37.83572707       2.69685137      -0.00118327       0.00232955      -0.00451799
Au      24.42547640      37.85493279       2.61169758      -0.00088271       0.00464616       0.00706629
Au      27.24494804      37.83535268       2.69603891       0.00652666       0.01060864      -0.00005217
Au       1.86569472      37.85498588       2.61134026      -0.00440725       0.00493402       0.00572817
Au       4.68539986      37.83535319       2.69516582      -0.00258243       0.00938058       0.00007168
Au       8.91284332       0.83738147       2.71873436       0.00409272      -0.00067957      -0.00050059
Au      11.73608359       0.83731694       2.71875085       0.00139095      -0.00660384       0.00292411
Au      14.55317908       0.83730282       2.71808447       0.00159071      -0.00057316      -0.00019476
Au      17.37665748       0.83709771       2.71764910      -0.00681993      -0.00231408       0.00458635
Au      20.19228169       0.83754786       2.71772536       0.01375501      -0.00663332      -0.00100255
Au      23.01726925       0.83724340       2.71772535      -0.01162895      -0.00561172       0.00376932
Au      25.83295654       0.83800669       2.71753617       0.00677672      -0.01332884       0.00217444
Au       0.45643348       0.83782422       2.71785070      -0.00062333      -0.01317945       0.00465441
Au       3.27295733       0.83786395       2.71801710       0.00556459      -0.00782930       0.00176496
Au       6.09683069       0.83793576       2.71800617      -0.00638476      -0.01520271       0.00661290
Au       7.50444341       3.32275486       2.68907602       0.01026465       0.00447106       0.00599177
Au      10.32566346       3.29976592       2.68940340      -0.00682867      -0.00473431       0.00012724
Au      13.14534716       3.32257001       2.69028987       0.00067946       0.00588634       0.00184911
Au      15.96528386       3.29976461       2.68820697       0.00078763      -0.01228815       0.00375184