669
Lattice="28.2 0.0 0.0 0.0 39.48 0.0 0.0 0.0 62.32960834" Properties=species:S:1:pos:R:3:forces:R:3 energy=-174025389.757332 free_energy=-174025389.757332 pbc="T T T"
Au       7.50525276      14.81855607       0.05228644      -0.00465328       0.01129510      -0.03149185
Au      10.32408900      14.82523004      -0.01630953       0.00371626       0.00320096      -0.02561113
Au      13.14627665      14.81836300       0.05258116      -0.01805245       0.00069961       0.05698139
Au      15.96478020      14.82464211      -0.01174760       0.02224098       0.01088557      -0.01498059
Au      18.78663956      14.81798127       0.05703655      -0.00911678       0.00159483      -0.00959012
Au      21.60534721      14.82531937      -0.00946606       0.01051655      -0.00559603       0.00298445
Au      24.42660417      14.81809299       0.05874906      -0.01556389       0.00761750       0.00214599
Au      27.24391083      14.82653604      -0.01054260       0.01493761      -0.00121831      -0.01467747
Au       1.86600309      14.81817733       0.05607961      -0.01357448       0.01764441      -0.05113139
Au       4.68486124      14.82642323      -0.01595111       0.00414533      -0.00366453      -0.02640907
Au       8.91199331      17.28982095       0.03438765      -0.00683241       0.00959639      -0.03799516
Au      11.73757688      17.28993730       0.03311119       0.00394799      -0.00634057       0.00021914
Au      14.55248346      17.28935843       0.03037438      -0.00023228      -0.00753863       0.00579809
Au      17.37864312      17.28931408       0.03342134      -0.00008913       0.00131134      -0.03843751
Au      20.19313110      17.28908252       0.03757647       0.00323067       0.00996715      -0.01570880
Au      23.01807231      17.28970796       0.03993237       0.00447907      -0.00032780       0.01016754
Au      25.83355183      17.28981436       0.04252248      -0.01061773       0.00751379      -0.00438816
Au       0.45651186      17.29059948       0.04222934       0.01716477      -0.00021026       0.01714057
Au       3.27299581      17.29077707       0.04200144      -0.00770737       0.00621428       0.00290003
Au       6.09678589      17.29018615       0.04027312       0.00383787       0.00537379      -0.03485438
Au       7.50506937      19.76016188       0.11035333       0.00249106      -0.00004397      -0.01225039
Au      10.32502793      19.76416459       0.05551786      -0.00327805      -0.00534602      -0.01329958
Au      13.14615292      19.76013335       0.09889079      -0.01409454       0.00631394       0.02320610
Au      15.96459074      19.76357449       0.04995184       0.01593878      -0.00342559      -0.00312081
Au      18.78571850      19.75884645       0.10329317      -0.00125595       0.00389276      -0.02499484
Au      21.60607333      19.76316404       0.05865067      -0.00059616      -0.00250124      -0.00681330
Au      24.42584666      19.75943358       0.11115828      -0.00384052      -0.00105542       0.00202451
Au      27.24493620      19.76389529       0.06494497       0.00220750      -0.00300254      -0.00288484
Au       1.86535578      19.76008842       0.11439594      -0.00637788       0.00089863       0.02010627
Au       4.68479168      19.76444784       0.06608965       0.00653856      -0.00712577       0.00081780
Au       8.91409139      22.22326484       0.08617400      -0.00104434       0.00283113      -0.03844786
Au      11.73572685      22.22337189       0.07861889      -0.00504066      -0.00135825      -0.00731031
Au      14.55455188      22.22257299       0.07625637       0.00221055       0.00713730      -0.00781381
Au      17.37574378      22.22326830       0.07888775       0.00603936       0.00106286      -0.01795876
Au      20.19482728      22.22262723       0.08171510       0.00138653       0.00570562      -0.00564313
Au      23.01596142      22.22318925       0.08618614       0.00154739      -0.00039766      -0.00999202
Au      25.83509932      22.22236310       0.08815516      -0.00728492       0.00658988      -0.02206318
Au       0.45510089      22.22345064       0.08981133       0.01642147      -0.00931837       0.04719658
Au       3.27442399      22.22277493       0.09096347      -0.00038859       0.00726720       0.05257809
Au       6.09571361      22.22360526       0.08991213      -0.00713434      -0.00645234      -0.02258398
Au       7.50481132      24.69301375       0.09808368      -0.00362354       0.00325998      -0.02079571
Au      10.32537635      24.69078139       0.10137484       0.00064073      -0.00217407      -0.01600886
Au      13.14527515      24.69323170       0.09038426       0.00146835       0.01525463       0.00585590
Au      15.96569290      24.69067437       0.09800347      -0.00256516      -0.00675186       0.01440393
Au      18.78493330      24.69334910       0.09279415       0.00945703       0.00544044      -0.00574347
Au      21.60628351      24.69012448       0.10207432      -0.01089521      -0.00389061      -0.00560252
Au      24.42456180      24.69297681       0.09719954       0.01249463      -0.00340372      -0.02431780
Au      27.24552817      24.68958414       0.10431674      -0.01357505       0.00383024       0.02502820
Au       1.86491733      24.69255301       0.09893949       0.00624189       0.00778681       0.06298058
Au       4.68547133      24.69006884       0.10568868      -0.00274627      -0.00489806       0.00701226
Au       8.91685967      27.15262927       0.06857136       0.00252383       0.01224505       0.00997732
Au      11.73293863      27.15409980       0.06808354       0.00636137      -0.00553637       0.00019536
Au      14.55768291      27.15362613       0.06816839      -0.01031629       0.00249021       0.04113168
Au      17.37308073      27.15366153       0.06828596       0.01276316       0.00443100       0.03615921
Au      20.19720422      27.15284001       0.06887112      -0.00501730       0.00189404       0.00114108
Au      23.01308185      27.15289140       0.06877610       0.00461622       0.00388661       0.00461832
Au      25.83708391      27.15217024       0.06881346      -0.01052617       0.00746749      -0.02225689
Au       0.45236456      27.15288654       0.06794924       0.01293878      -0.01005638       0.03604757
Au       3.27688622      27.15217221       0.06819749       0.00007392       0.00594941      -0.01983022
Au       6.09345486      27.15309080       0.06879070      -0.00341547       0.00314275      -0.05883823
Au       7.50452693      29.62493614       0.01253803       0.00545755      -0.00897241       0.01787542
Au      10.32602716      29.61877605       0.06556459      -0.00952814      -0.00299113       0.01428998
Au      13.14476290      29.62573076       0.01394822       0.00668093      -0.00769672       0.00504433
Au      15.96638896      29.61873054       0.06762732      -0.00931983      -0.01270707       0.06168800
Au      18.78455945      29.62552180       0.01447000       0.01181197      -0.01187537      -0.00777792
Au      21.60626990      29.61840728       0.06665398      -0.01604237      -0.00412287      -0.00936927
Au      24.42419424      29.62511648       0.01332882       0.01480954      -0.01528272      -0.02676548
Au      27.24568293      29.61823798       0.06502364      -0.01865278      -0.00203593      -0.01164942
Au       1.86438802      29.62479551       0.01153055       0.01313608      -0.00045200      -0.01112513
Au       4.68588013      29.61859648       0.06357537      -0.00611824      -0.01113449      -0.04562413
Au       8.91741147      32.08884518       0.01526319       0.00173317       0.00150078      -0.02243896
Au      11.73270632      32.08927026       0.01700197      -0.00953476       0.00783781      -0.01872466
Au      14.55769872      32.08902458       0.01809861       0.01187622       0.00549057      -0.02141331
Au      17.37280912      32.08915174       0.01864364      -0.01116747       0.00920905      -0.03275808
Au      20.19744600      32.08857135       0.01823793       0.01174449       0.00847412      -0.01744003
Au      23.01258189      32.08862287       0.01774055      -0.00114706       0.00440673      -0.03728632
Au      25.83774672      32.08830153       0.01684916      -0.00393593       0.01397719       0.01361101
Au       0.45163640      32.08873937       0.01552701       0.00805542      -0.00395489       0.02540372
Au       3.27760189      32.08846114       0.01458368       0.00013788       0.00942181      -0.03400655
Au       6.09253010      32.08886455       0.01488366       0.00042536       0.01018276      -0.01496932
Au       7.50420494      34.56644299      -0.01114612       0.01491944      -0.00035809      -0.02490493
Au      10.32621746      34.55892226       0.05727822      -0.01070984       0.00622067      -0.02464836
Au      13.14471632      34.56627022      -0.00928495       0.00668708      -0.00196299      -0.00043936
Au      15.96605385      34.55864445       0.05953861      -0.00842398       0.00233937      -0.01719428
Au      18.78455739      34.56630327      -0.00825608       0.01077890      -0.00405119      -0.01826429
Au      21.60638607      34.55883480       0.05941176      -0.01268416       0.00761965      -0.03052701
Au      24.42418868      34.56634603      -0.00913188       0.01021372      -0.00508907      -0.02307879
Au      27.24590052      34.55875142       0.05843635      -0.01430460       0.00074758       0.03217138
Au       1.86438233      34.56633127      -0.01108060       0.01589324       0.00407731       0.00608023
Au       4.68597982      34.55917835       0.05639617      -0.01731785       0.00089980      -0.02850338
Au       8.91711827      37.03081947       0.04010836       0.00395920      -0.00600663       0.02270226
Au      11.73273815      37.03031392       0.04086121      -0.00338221       0.00747875       0.04086243
Au      14.55748470      37.03055203       0.04138823       0.00217204      -0.00513568      -0.00894996
Au      17.37322864      37.03028235       0.04197661      -0.00302163       0.00105206      -0.02356700
Au      20.19709430      37.03014512       0.04156540       0.01190277      -0.00110649       0.04809171
Au      23.01285784      37.02987417       0.04189801      -0.00713582       0.00161448       0.04239781
Au      25.83756498      37.03016263       0.04145624      -0.01076231       0.00096087      -0.02154597
Au       0.45198639      37.02991800       0.04108200       0.00949988      -0.00302503       0.00338216
Au       3.27757383      37.03041710       0.03996813       0.00350959       0.00082518      -0.00065575
Au       6.09289461      37.03017506       0.04057880      -0.00102779       0.00771826      -0.02272410
Au       7.50483404       0.02369788       0.06323400       0.00290004      -0.00448167      -0.00089310
Au      10.32573938       0.01956986       0.11159398      -0.00384767       0.00180681       0.02736676
Au      13.14505584       0.02366218       0.06302495      -0.00040773      -0.00144135      -0.00315263
Au      15.96554446       0.01891420       0.11150907      -0.00452923       0.00591252      -0.01988410
Au      18.78474190       0.02318886       0.06297262       0.00742846      -0.00291888      -0.02753759
Au      21.60596577       0.01903900       0.11114720      -0.01007910       0.00869120       0.03665340
Au      24.42459556       0.02330321       0.06301813       0.01123347       0.00065955      -0.01273278
Au      27.24521268       0.01913926       0.11135210      -0.00433489       0.00429835      -0.00773848
Au       1.86512827       0.02372983       0.06263239       0.00496715      -0.00289779      -0.01240237
Au       4.68558564       0.01979587       0.11116184      -0.00635076       0.00069721      -0.00913419
Au       8.91551962       2.48368954       0.08896780       0.00877610      -0.00621079      -0.01637726
Au      11.73494690       2.48270799       0.08898920      -0.00502538       0.00305359      -0.02628202
Au      14.55543556       2.48355171       0.08835510       0.00629331      -0.00827011       0.06283418
Au      17.37516211       2.48279455       0.08783379      -0.00436838       0.00841868       0.01064395
Au      20.19507967       2.48319713       0.08738388       0.01181872      -0.00459040      -0.01589923
Au      23.01466364       2.48262701       0.08760491      -0.00893648      -0.00139776       0.01575466
Au      25.83541367       2.48324229       0.08761243      -0.00794496      -0.00035288      -0.00061332
Au       0.45396187       2.48267486       0.08769330       0.00845492       0.00323032       0.01747862
Au       3.27569871       2.48326475       0.08773229       0.00167688      -0.00396305      -0.02117530
Au       6.09488814       2.48283127       0.08928167      -0.00390542       0.00584963      -0.01465513
Au       7.50587090       4.94981236       0.10507876      -0.00865671       0.00146712      -0.01173632
Au      10.32536027       4.95262492       0.09836102       0.01101915       0.00155512      -0.03369272
Au      13.14644628       4.94968648       0.10548639      -0.01319337       0.00157790       0.02425338
Au      15.96507499       4.95283242       0.09871310       0.01101978       0.00596987       0.06248396
Au      18.78528784       4.94940474       0.10428041       0.00195422      -0.00199077       0.01591240
Au      21.60536599       4.95266996       0.09763691      -0.01332515       0.00732721       0.03867620
Au      24.42494239       4.94964290       0.10360631       0.00815619       0.00176350       0.01598294
Au      27.24428074       4.95260021       0.09663880      -0.00091514       0.00184702       0.03164944
Au       1.86528758       4.95000858       0.10301980      -0.00770933      -0.00856619       0.00434612
Au       4.68488188       4.95255114       0.09617183       0.00881904       0.00236802      -0.00096676
Au       8.91371772       7.41308978       0.06688913       0.00036287      -0.00533901       0.00483627
Au      11.73791276       7.41229404       0.06937952      -0.00321484       0.00097092      -0.03751279
Au      14.55363132       7.41272717       0.07115871       0.00536779      -0.01022280       0.01894609
Au      17.37740891       7.41228387       0.07100874      -0.00006688       0.00281917      -0.00312873
Au      20.19290972       7.41304233       0.06984900       0.01181163      -0.00487166      -0.02431180
Au      23.01670850       7.41217615       0.06925298      -0.00782300      -0.00010588       0.00376138
Au      25.83228467       7.41268815       0.06725855      -0.00095784      -0.00418596       0.00172417
Au       0.45638510       7.41192647       0.06574973      -0.00095848       0.00757874      -0.01104287
Au       3.27252063       7.41303630       0.06387055       0.00683733      -0.00191044      -0.02949724
Au       6.09747975       7.41249460       0.06435261      -0.00023718       0.00118648       0.01045117
Au       7.50592231       9.87873146       0.05695420      -0.01032778      -0.01300706      -0.01144521
Au      10.32494988       9.88382088       0.00970176       0.01567473       0.00608547      -0.03754615
Au      13.14759418       9.87800469       0.06729795      -0.02514373      -0.00217182      -0.01735459
Au      15.96477293       9.88381907       0.01609672       0.02247426       0.01458993      -0.00984071
Au      18.78635663       9.87753680       0.06938787      -0.01213738      -0.00283221      -0.03243981
Au      21.60465554       9.88449430       0.01454529       0.00133405      -0.00187167      -0.00064510
Au      24.42526625       9.87768956       0.06536949      -0.00090599       0.00573304      -0.00783494
Au      27.24346170       9.88445182       0.00943280       0.00790187      -0.01038082       0.00624085
Au       1.86561473       9.87810902       0.05787843      -0.01234439      -0.00571665      -0.03068703
Au       4.68499351       9.88442442       0.00460581       0.00715876      -0.00798582      -0.00341935
Au       8.91198944      12.34883674       0.00867199       0.01518969      -0.00574925      -0.02894827
Au      11.73853831      12.34825076       0.01301272      -0.00322904      -0.00339820       0.05195978
Au      14.55242019      12.34852162       0.01747700       0.00784175      -0.00939989       0.06887817
Au      17.37879051      12.34866358       0.01924933      -0.00959395      -0.00981185      -0.01736400
Au      20.19263052      12.34848026       0.01870633       0.00718719       0.00420743      -0.00797801
Au      23.01759518      12.34866171       0.01790988      -0.00106338      -0.00192335      -0.00888938
Au      25.83226277      12.34924507       0.01515980      -0.01175117      -0.00235268       0.00948139
Au       0.45735133      12.34891507       0.01225172       0.00372851       0.00364320      -0.03194232
Au       3.27191696      12.34920109       0.00761268       0.00432169       0.00208499      -0.03805067
Au       6.09792880      12.34822982       0.00696872      -0.00370679       0.00764025       0.00325369
Au       7.50463631      13.18066877       2.65533248       0.00741891       0.00209524       0.00445059
Au      10.32560438      13.18468954       2.55011473      -0.07889933       0.00411622       0.00875995
Au      13.14447110      13.18217219       2.66335681       0.01655144       0.01486567      -0.32151660
Au      15.96567542      13.18558913       2.55834460       0.06223154      -0.00675484      -0.03607920
Au      18.78504102      13.18195145       2.66863524       0.00802861       0.01319359      -0.05674658
Au      21.60599080      13.18469858       2.56076957      -0.01263821      -0.01155087      -0.00867674
Au      24.42565653      13.18051921       2.66739190      -0.00690593       0.02272858      -0.04469111
Au      27.24556069      13.18379538       2.55496416       0.03403016       0.00141835       0.01689065
Au       1.86589217      13.18023729       2.65964291      -0.00468279       0.00612031       0.05800046
Au       4.68588837      13.18349725       2.54712955      -0.03144852       0.00980482       0.05387238
Au       8.91613942      15.64255353       2.63541848       0.04152060       0.01989387       0.08738235
Au      11.73368461      15.64338744       2.63575987      -0.08411200       0.05673150       0.01866353
Au      14.55614645      15.64449935       2.63456473       0.02676096       0.04399848      -0.05078282
Au      17.37373990      15.64444373       2.63954224       0.01797292       0.00360700      -0.01465083
Au      20.19628352      15.64410402       2.64160305      -0.05035681      -0.01222669      -0.05630196
Au      23.01344758      15.64378751       2.64560988       0.05747197      -0.01679809      -0.07700816
Au      25.83736031      15.64329921       2.64482314      -0.01640299      -0.00580937      -0.01375682
Au       0.45349774      15.64228981       2.64391425       0.01877917      -0.01607948       0.00640769
Au       3.27669787      15.64218376       2.64093019       0.03556193      -0.00887884       0.08863517
Au       6.09419183      15.64163461       2.63822290      -0.03765396       0.02522086       0.08465571
Au       7.50573054      18.09547396       2.69316539       0.00153249      -0.00588054       0.03468299
Au      10.32582195      18.11432104       2.60165430      -0.04128453      -0.00228103       0.04119154
Au      13.14535616      18.09593555       2.68239951       0.00376631      -0.02810980      -0.05508939
Au      15.96511193      18.11501665       2.59782642       0.03003183       0.01922894       0.00608088
Au      18.78448284      18.09589632       2.68775973       0.00482676      -0.00200844      -0.00421810
Au      21.60534630      18.11445184       2.60773260      -0.01646987       0.04732265      -0.01255854
Au      24.42550258      18.09588089       2.69679311      -0.00723863      -0.00515276      -0.04550827
Au      27.24517839      18.11452429       2.61373465       0.00281764       0.00287857      -0.01938379
Au       1.86593619      18.09570055       2.69866769      -0.00224681      -0.03588687      -0.05722638
Au       4.68584906      18.11391552       2.61291813       0.01986588      -0.02234878       0.03017312
Au       8.91734245      20.57709037       2.71374871       0.01807177       0.00008227       0.07712194
Au      11.73386921      20.57733605       2.70589229      -0.06054306       0.05040726       0.01434309
Au      14.55667402      20.57754385       2.70163358       0.02544990       0.00912419      -0.03947008
Au      17.37346986      20.57744641       2.70481667       0.00703850      -0.02811995      -0.00179148
Au      20.19584406      20.57738830       2.70924594      -0.00959276      -0.02654858       0.00217570
Au      23.01330783      20.57732985       2.71615330       0.00580255      -0.01107669      -0.02523957
Au      25.83669019      20.57727748       2.71784326      -0.02767554      -0.02510563      -0.05755445
Au       0.45332854      20.57710534       2.72113366      -0.00435778      -0.00243784      -0.09442262
Au       3.27673505      20.57712732       2.72103138       0.00071500      -0.01075882      -0.10127724
Au       6.09433664      20.57664465       2.71931399       0.05093012      -0.04881239      -0.03804494
Au       7.50586278      23.03870365       2.68648725       0.01699564       0.04331153       0.09712765
Au      10.32623214      23.06162237       2.68191617      -0.01803393      -0.01722803       0.07377219
Au      13.14615679      23.03847853       2.67686744      -0.01548480      -0.03608709      -0.04006276
Au      15.96450247      23.06210895       2.67604014       0.00883950       0.03183415      -0.02211308
Au      18.78470440      23.03773043       2.67933747       0.00829570      -0.01963394      -0.02859981
Au      21.60493044      23.06175378       2.68496340       0.00416709       0.03576381      -0.01399571
Au      24.42510379      23.03830986       2.68736851      -0.01459897       0.02621485       0.02689683
Au      27.24437447      23.06225275       2.68887865      -0.03817879       0.03548149      -0.08583049
Au       1.86559074      23.03927453       2.69042126      -0.00668647      -0.18643964      -0.21761348
Au       4.68558084      23.06222619       2.69074755       0.05185203       0.05093693      -0.07434816
Au       8.91709588      25.52815054       2.71711029      -0.05103293      -0.05668228       0.03703748
Au      11.73369867      25.52809935       2.71454007      -0.00390663      -0.00169688      -0.05672867
Au      14.55683448      25.52783029       2.71262447      -0.05748608      -0.10071752      -0.14953790
Au      17.37296397      25.52834700       2.71388687       0.07062694      -0.10711584      -0.13900239
Au      20.19598139      25.52823883       2.71690424      -0.00065718      -0.01649519      -0.05086948
Au      23.01364680      25.52833702       2.71806647       0.03657627      -0.04673530       0.00935525
Au      25.83565390      25.52798233       2.71897753      -0.02334377      -0.03336417       0.01430188
Au       0.45416094      25.52773922       2.71922970      -0.18609077       0.12254247      -0.20913341
Au       3.27540066      25.52793483       2.71989629       0.21873487       0.15973059      -0.15787720
Au       6.09427860      25.52790010       2.71932385       0.00204871       0.00128554       0.10618266
Au       7.50514958      27.99101717       2.61715580      -0.03173780      -0.02126494       0.02333556
Au      10.32563766      28.00494111       2.70016128      -0.00445849       0.03665802      -0.04814700
Au      13.14613973      27.99068519       2.61612533      -0.05271661      -0.00235450      -0.06690778
Au      15.96449769      28.00493642       2.70081389       0.01119029       0.11806932      -0.24056159
Au      18.78548308      27.99071042       2.61805417       0.04043472       0.02150676      -0.03514777
Au      21.60511184      28.00533710       2.70123691       0.00499582       0.04385623      -0.04279319
Au      24.42568079      27.99046068       2.61786553      -0.00847612       0.03505932       0.03224227
Au      27.24436316      28.00596574       2.69967547       0.01461110       0.02528612      -0.02475253
Au       1.86594102      27.99052993       2.61681756       0.02023632       0.01816162       0.01490769
Au       4.68517674      28.00582405       2.69930174       0.00075481      -0.02480004       0.13988018
Au       8.91426874      30.46291612       2.64460583       0.02790109       0.01047600      -0.02387140
Au      11.73434259      30.46317308       2.64604412      -0.03495577       0.01592336      -0.04877869
Au      14.55484805      30.46314809       2.64667466       0.02702694       0.02669675      -0.06337298
Au      17.37515898      30.46336855       2.64770545       0.01111784       0.01371356      -0.00615995
Au      20.19441587      30.46324438       2.64670393       0.00327415       0.00124183       0.01186745
Au      23.01492560      30.46334384       2.64619707       0.04350891      -0.01750279       0.08645655
Au      25.83474208      30.46286304       2.64447849      -0.06099670      -0.04901061       0.05303257
Au       0.45449767      30.46278026       2.64410040       0.03344216      -0.02379751       0.02054952
Au       3.27465877      30.46265523       2.64263441      -0.00400344      -0.00583033       0.05863907
Au       6.09489765      30.46261474       2.64317234      -0.03799815      -0.00312790       0.01164189
Au       7.50493679      32.92439527       2.55653883      -0.00682294       0.00377283       0.02983256
Au      10.32507511      32.92148764       2.66624099      -0.00436382       0.00625824      -0.00591710
Au      13.14576991      32.92462410       2.55959313      -0.00801465      -0.00301370      -0.00920449
Au      15.96470436      32.92181657       2.66854127       0.00536692       0.00452738      -0.01974826
Au      18.78558444      32.92453583       2.56030220      -0.00278307       0.00077767       0.02308958
Au      21.60536870      32.92109701       2.66862936       0.00025790       0.00779607      -0.00464566
Au      24.42556116      32.92407895       2.55925410      -0.03605537      -0.00236186       0.02037650
Au      27.24475905      32.92114567       2.66667750       0.01032758       0.01286529      -0.06698319
Au       1.86569259      32.92422582       2.55717663       0.03311839      -0.01922962      -0.00194460
Au       4.68523903      32.92097836       2.66480542       0.00386364       0.01154695       0.01536348
Au       8.91306154      35.38303163       2.64307664      -0.00599236      -0.01922044       0.00941054
Au      11.73537058      35.38327524       2.64434582      -0.04244643      -0.03519270      -0.05758196
Au      14.55353353      35.38313225       2.64472314       0.04695660      -0.00816071      -0.04800761
Au      17.37594977      35.38331189       2.64579878      -0.00436069      -0.00371679       0.01101356
Au      20.19294367      35.38341927       2.64538374       0.00795553      -0.02849801      -0.00588166
Au      23.01615646      35.38339050       2.64580736       0.00525161      -0.03312242       0.00477691
Au      25.83381906      35.38354571       2.64437691      -0.02631504       0.01114349      -0.01787030
Au       0.45545531      35.38338447       2.64445494      -0.01314425       0.00868995      -0.05496016
Au       3.27357235      35.38336120       2.64272593       0.04058129      -0.01729795      -0.03108166
Au       6.09608010      35.38345697       2.64276425       0.00004545      -0.01357076       0.03153516
Au       7.50484692      37.85470692       2.61092345      -0.02826325       0.00094825       0.00222400
Au      10.32522761      37.83589871       2.69558998      -0.00679019      -0.02675663      -0.09230816
Au      13.14526146      37.85469937       2.61165790       0.03428963       0.02706336      -0.04162071
Au      15.96495622      37.83604432       2.69631596       0.00069084      -0.01421050      -0.02728736
Au      18.78516182      37.85485341       2.61151145      -0.05126066       0.00215457      -0.00436842
Au      21.60547099      37.83572707       2.69685137       0.00115793      -0.06403523      -0.16577032
Au      24.42547640      37.85493279       2.61169758       0.03930964       0.00317264      -0.01848778
Au      27.24494804      37.83535268       2.69603891       0.00421401       0.00524935      -0.02988217
Au       1.86569472      37.85498588       2.61134026       0.00249028       0.02616710      -0.01010262
Au       4.68539986      37.83535319       2.69516582       0.00148948       0.00325889      -0.00783253
Au       8.91284332       0.83738147       2.71873436      -0.04265199       0.05214685      -0.04016336
Au      11.73608359       0.83731694       2.71875085       0.00088287       0.01494107      -0.09656950
Au      14.55317908       0.83730282       2.71808447       0.02044296      -0.03254131      -0.05487864
Au      17.37665748       0.83709771       2.71764910       0.04152189       0.01283333       0.04519818
Au      20.19228169       0.83754786       2.71772536      -0.08818693       0.09693740      -0.03775083
Au      23.01726925       0.83724340       2.71772535       0.05816028       0.07177870      -0.07572838
Au      25.83295654       0.83800669       2.71753617      -0.00590934      -0.01695234      -0.00349870
Au       0.45643348       0.83782422       2.71785070       0.02644968      -0.00142235       0.02425843
Au       3.27295733       0.83786395       2.71801710      -0.01552041       0.00822369       0.02882671
Au       6.09683069       0.83793576       2.71800617       0.00736584      -0.01001718       0.01972191
Au       7.50444341       3.32275486       2.68907602       0.01329933       0.01041415       0.03729283
Au      10.32566346       3.29976592       2.68940340      -0.01999379       0.03420521       0.06775171
Au      13.14534716       3.32257001       2.69028987      -0.05480566       0.03278404      -0.08597734
Au      15.96528386       3.29976461       2.68820697       0.01457482      -0.25913908      -0.25231322