669
Lattice="28.2 0.0 0.0 0.0 39.48 0.0 0.0 0.0 62.32960834" Properties=species:S:1:pos:R:3:forces:R:3 energy=-174025430.200588 free_energy=-174025430.200588 pbc="T T T"
Au       7.50525276      14.81855607       0.05228644      -0.00792721       0.00311905      -0.01850920
Au      10.32408900      14.82523004      -0.01630953       0.01277822       0.00549632      -0.01146129
Au      13.14627665      14.81836300       0.05258116      -0.01567953      -0.00187466      -0.01674067
Au      15.96478020      14.82464211      -0.01174760       0.01367795       0.00531830      -0.01383498
Au      18.78663956      14.81798127       0.05703655      -0.01055244      -0.00063067      -0.01493165
Au      21.60534721      14.82531937      -0.00946606       0.00975840       0.00199076      -0.00641338
Au      24.42660417      14.81809299       0.05874906      -0.01588460       0.00545206      -0.00764220
Au      27.24391083      14.82653604      -0.01054260       0.01673665      -0.00093765      -0.00834926
Au       1.86600309      14.81817733       0.05607961      -0.01354948       0.01227182      -0.01159843
Au       4.68486124      14.82642323      -0.01595111       0.00303531       0.00147783      -0.00946778
Au       8.91199331      17.28982095       0.03438765       0.00061601       0.00839682      -0.00600133
Au      11.73757688      17.28993730       0.03311119      -0.00386295       0.00137241      -0.01234543
Au      14.55248346      17.28935843       0.03037438       0.00564020       0.00559040      -0.01229607
Au      17.37864312      17.28931408       0.03342134      -0.00642607       0.00006121      -0.01153301
Au      20.19313110      17.28908252       0.03757647       0.00512938       0.00727339      -0.01020092
Au      23.01807231      17.28970796       0.03993237       0.00407474      -0.00125993      -0.00406208
Au      25.83355183      17.28981436       0.04252248      -0.00889374       0.00822850      -0.00568681
Au       0.45651186      17.29059948       0.04222934       0.01379741      -0.00076392      -0.00201878
Au       3.27299581      17.29077707       0.04200144      -0.00903289       0.00293815      -0.00520025
Au       6.09678589      17.29018615       0.04027312       0.00368659       0.00749947      -0.00766744
Au       7.50506937      19.76016188       0.11035333      -0.00259784      -0.00745754      -0.00434674
Au      10.32502793      19.76416459       0.05551786      -0.00074010      -0.00422831      -0.00448807
Au      13.14615292      19.76013335       0.09889079      -0.01238504      -0.00900543      -0.00960745
Au      15.96459074      19.76357449       0.04995184       0.01192187      -0.00552654      -0.00666603
Au      18.78571850      19.75884645       0.10329317      -0.00198291      -0.00149900      -0.01051430
Au      21.60607333      19.76316404       0.05865067       0.00008685      -0.00091335      -0.00175540
Au      24.42584666      19.75943358       0.11115828      -0.00425813      -0.00534994      -0.00287846
Au      27.24493620      19.76389529       0.06494497       0.00628412      -0.00298502      -0.00115552
Au       1.86535578      19.76008842       0.11439594      -0.00598981      -0.00568328      -0.00124686
Au       4.68479168      19.76444784       0.06608965       0.00360874      -0.00372942      -0.00256937
Au       8.91409139      22.22326484       0.08617400       0.00419384       0.00365308      -0.00653894
Au      11.73572685      22.22337189       0.07861889      -0.00371348       0.00378030      -0.00335915
Au      14.55455188      22.22257299       0.07625637       0.00197254       0.01281736      -0.00809392
Au      17.37574378      22.22326830       0.07888775       0.00164932      -0.00050843      -0.00854955
Au      20.19482728      22.22262723       0.08171510       0.00335868       0.00681619      -0.00353379
Au      23.01596142      22.22318925       0.08618614       0.00079702      -0.00248608      -0.00143245
Au      25.83509932      22.22236310       0.08815516      -0.00536965       0.00931118      -0.00206987
Au       0.45510089      22.22345064       0.08981133       0.00603154      -0.00381531       0.00135846
Au       3.27442399      22.22277493       0.09096347       0.00019160       0.00709035      -0.00080510
Au       6.09571361      22.22360526       0.08991213      -0.00497018      -0.00204095      -0.00296909
Au       7.50481132      24.69301375       0.09808368       0.00312024       0.00221464      -0.00251026
Au      10.32537635      24.69078139       0.10137484      -0.00158444      -0.00273089      -0.00642661
Au      13.14527515      24.69323170       0.09038426       0.00038829       0.00472365       0.00051605
Au      15.96569290      24.69067437       0.09800347      -0.00460011      -0.00073686      -0.01025388
Au      18.78493330      24.69334910       0.09279415       0.00806934      -0.00017431       0.00058299
Au      21.60628351      24.69012448       0.10207432      -0.01202700      -0.00161151      -0.00232829
Au      24.42456180      24.69297681       0.09719954       0.00955511      -0.00306907       0.00051745
Au      27.24552817      24.68958414       0.10431674      -0.00643839       0.00206261      -0.00109392
Au       1.86491733      24.69255301       0.09893949       0.00276877       0.00156035      -0.00022243
Au       4.68547133      24.69006884       0.10568868      -0.00528701      -0.00093928      -0.00104480
Au       8.91685967      27.15262927       0.06857136       0.00132642       0.00839213      -0.00465274
Au      11.73293863      27.15409980       0.06808354       0.00441425      -0.00358411      -0.00589892
Au      14.55768291      27.15362613       0.06816839      -0.00554005       0.00288000      -0.00918646
Au      17.37308073      27.15366153       0.06828596       0.00517391       0.00093673      -0.00525501
Au      20.19720422      27.15284001       0.06887112      -0.00098981       0.00546314      -0.00404018
Au      23.01308185      27.15289140       0.06877610       0.00202073       0.00295219      -0.00287858
Au      25.83708391      27.15217024       0.06881346      -0.00290755       0.00685270      -0.00386787
Au       0.45236456      27.15288654       0.06794924       0.00621996      -0.00131103      -0.00007093
Au       3.27688622      27.15217221       0.06819749       0.00036052       0.00734719      -0.00256440
Au       6.09345486      27.15309080       0.06879070      -0.00409987      -0.00042284      -0.00323759
Au       7.50452693      29.62493614       0.01253803       0.01090656      -0.00358934      -0.00359231
Au      10.32602716      29.61877605       0.06556459      -0.01201208      -0.00417369      -0.00466876
Au      13.14476290      29.62573076       0.01394822       0.00920050      -0.00374274      -0.00312503
Au      15.96638896      29.61873054       0.06762732      -0.01173515      -0.00137872      -0.00611740
Au      18.78455945      29.62552180       0.01447000       0.01107288      -0.00690830      -0.00194474
Au      21.60626990      29.61840728       0.06665398      -0.01411487      -0.00529314      -0.00460203
Au      24.42419424      29.62511648       0.01332882       0.01144838      -0.00831356      -0.00166572
Au      27.24568293      29.61823798       0.06502364      -0.01039237      -0.00665083      -0.00709996
Au       1.86438802      29.62479551       0.01153055       0.00818017      -0.00528245      -0.00072344
Au       4.68588013      29.61859648       0.06357537      -0.01122196      -0.00908089      -0.00593412
Au       8.91741147      32.08884518       0.01526319       0.00372513       0.00312014      -0.00781308
Au      11.73270632      32.08927026       0.01700197      -0.00203816       0.00101521      -0.00743696
Au      14.55769872      32.08902458       0.01809861       0.00297545       0.00118768      -0.00942673
Au      17.37280912      32.08915174       0.01864364      -0.00300055       0.00134922      -0.00819620
Au      20.19744600      32.08857135       0.01823793       0.00500689       0.00550618      -0.00845610
Au      23.01258189      32.08862287       0.01774055      -0.00163598       0.00450045      -0.00835264
Au      25.83774672      32.08830153       0.01684916      -0.00265274       0.00732342      -0.00972179
Au       0.45163640      32.08873937       0.01552701       0.00679101       0.00252835      -0.00702309
Au       3.27760189      32.08846114       0.01458368      -0.00148964       0.00652421      -0.00824596
Au       6.09253010      32.08886455       0.01488366      -0.00202058       0.00296815      -0.00929444
Au       7.50420494      34.56644299      -0.01114612       0.01394917      -0.00028404      -0.00617482
Au      10.32621746      34.55892226       0.05727822      -0.01428633       0.00113075      -0.00718238
Au      13.14471632      34.56627022      -0.00928495       0.00935317       0.00224592      -0.00505246
Au      15.96605385      34.55864445       0.05953861      -0.01006156       0.00356394      -0.00833452
Au      18.78455739      34.56630327      -0.00825608       0.01109799      -0.00097736      -0.00555359
Au      21.60638607      34.55883480       0.05941176      -0.01517199      -0.00179397      -0.00579238
Au      24.42418868      34.56634603      -0.00913188       0.01322263      -0.00297902      -0.00442542
Au      27.24590052      34.55875142       0.05843635      -0.01237435      -0.00227513      -0.00872654
Au       1.86438233      34.56633127      -0.01108060       0.00975624      -0.00127090      -0.00354529
Au       4.68597982      34.55917835       0.05639617      -0.01312632      -0.00404698      -0.00763846
Au       8.91711827      37.03081947       0.04010836       0.00505643      -0.00309600      -0.00248020
Au      11.73273815      37.03031392       0.04086121      -0.00128418       0.00305821      -0.00287771
Au      14.55748470      37.03055203       0.04138823       0.00213881      -0.00357896      -0.00328522
Au      17.37322864      37.03028235       0.04197661      -0.00669991      -0.00020022      -0.00444606
Au      20.19709430      37.03014512       0.04156540       0.00726494       0.00007858      -0.00285364
Au      23.01285784      37.02987417       0.04189801      -0.00304101       0.00403219      -0.00322593
Au      25.83756498      37.03016263       0.04145624      -0.00161571       0.00028637      -0.00491599
Au       0.45198639      37.02991800       0.04108200       0.00648245       0.00601518      -0.00277353
Au       3.27757383      37.03041710       0.03996813      -0.00156995       0.00142290      -0.00284919
Au       6.09289461      37.03017506       0.04057880      -0.00347644       0.00623378      -0.00567547
Au       7.50483404       0.02369788       0.06323400       0.00647483       0.00136638      -0.00049306
Au      10.32573938       0.01956986       0.11159398      -0.00729159       0.00010662      -0.00039564
Au      13.14505584       0.02366218       0.06302495       0.00394059       0.00004886       0.00114349
Au      15.96554446       0.01891420       0.11150907      -0.00548128       0.00506538      -0.00103191
Au      18.78474190       0.02318886       0.06297262       0.00752019       0.00238053      -0.00092512
Au      21.60596577       0.01903900       0.11114720      -0.01060429       0.00089500       0.00179341
Au      24.42459556       0.02330321       0.06301813       0.00698120       0.00046261      -0.00090969
Au      27.24521268       0.01913926       0.11135210      -0.00298053      -0.00014982      -0.00024024
Au       1.86512827       0.02372983       0.06263239       0.00083695      -0.00184357       0.00131452
Au       4.68558564       0.01979587       0.11116184      -0.00529535      -0.00409848      -0.00000678
Au       8.91551962       2.48368954       0.08896780       0.00478207      -0.00668816       0.00157173
Au      11.73494690       2.48270799       0.08898920      -0.00258721       0.00552882       0.00148997
Au      14.55543556       2.48355171       0.08835510       0.00567310      -0.00743785       0.00163063
Au      17.37516211       2.48279455       0.08783379      -0.00838862       0.00105037       0.00041582
Au      20.19507967       2.48319713       0.08738388       0.00814348      -0.00502574       0.00186606
Au      23.01466364       2.48262701       0.08760491      -0.00416249       0.00249353       0.00024123
Au      25.83541367       2.48324229       0.08761243      -0.00029090      -0.00422427      -0.00087733
Au       0.45396187       2.48267486       0.08769330       0.00439816       0.00424739       0.00003247
Au       3.27569871       2.48326475       0.08773229      -0.00169378      -0.00131452       0.00156804
Au       6.09488814       2.48283127       0.08928167      -0.00227240       0.00471611      -0.00341357
Au       7.50587090       4.94981236       0.10507876      -0.00535896       0.00317239      -0.00376735
Au      10.32536027       4.95262492       0.09836102       0.00531679       0.00123732       0.00025832
Au      13.14644628       4.94968648       0.10548639      -0.01020819       0.00182674       0.00083920
Au      15.96507499       4.95283242       0.09871310       0.00539150      -0.00134688      -0.00273789
Au      18.78528784       4.94940474       0.10428041      -0.00015384       0.00497360      -0.00056598
Au      21.60536599       4.95266996       0.09763691      -0.00370267      -0.00013748       0.00078268
Au      24.42494239       4.94964290       0.10360631      -0.00148457       0.00070138      -0.00061828
Au      27.24428074       4.95260021       0.09663880       0.00486772       0.00004231       0.00149551
Au       1.86528758       4.95000858       0.10301980      -0.00521473      -0.00314462      -0.00094514
Au       4.68488188       4.95255114       0.09617183       0.00414323       0.00282187       0.00313996
Au       8.91371772       7.41308978       0.06688913      -0.00024258      -0.00553996      -0.00393588
Au      11.73791276       7.41229404       0.06937952       0.00158104       0.00212046      -0.00374064
Au      14.55363132       7.41272717       0.07115871       0.00031221      -0.00332947      -0.00305467
Au      17.37740891       7.41228387       0.07100874      -0.00013371       0.00328556      -0.00307600
Au      20.19290972       7.41304233       0.06984900       0.00287070      -0.00588122       0.00035910
Au      23.01670850       7.41217615       0.06925298      -0.00187359       0.00440328      -0.00321304
Au      25.83228467       7.41268815       0.06725855       0.00236986      -0.00229962      -0.00158970
Au       0.45638510       7.41192647       0.06574973      -0.00155688       0.00629312      -0.00390656
Au       3.27252063       7.41303630       0.06387055       0.00420436      -0.00522651      -0.00351781
Au       6.09747975       7.41249460       0.06435261      -0.00127014      -0.00118735      -0.00582090
Au       7.50592231       9.87873146       0.05695420      -0.00574521      -0.01166227      -0.01282662
Au      10.32494988       9.88382088       0.00970176       0.01484788       0.00346762      -0.00518626
Au      13.14759418       9.87800469       0.06729795      -0.02048836      -0.00531232      -0.01155912
Au      15.96477293       9.88381907       0.01609672       0.01672366       0.00480418      -0.00285256
Au      18.78635663       9.87753680       0.06938787      -0.01326034       0.00028626      -0.00993358
Au      21.60465554       9.88449430       0.01454529       0.00756958      -0.00165382      -0.00012446
Au      24.42526625       9.87768956       0.06536949      -0.00916963       0.00024250      -0.00835530
Au      27.24346170       9.88445182       0.00943280       0.01177847      -0.00285764      -0.00248009
Au       1.86561473       9.87810902       0.05787843      -0.01404374      -0.00507513      -0.01124588
Au       4.68499351       9.88442442       0.00460581       0.00352279      -0.00308760      -0.00756031
Au       8.91198944      12.34883674       0.00867199       0.01001051      -0.00312789      -0.01293927
Au      11.73853831      12.34825076       0.01301272      -0.00442415      -0.00313048      -0.01331563
Au      14.55242019      12.34852162       0.01747700       0.00791358      -0.00280233      -0.01249061
Au      17.37879051      12.34866358       0.01924933      -0.00510562      -0.00723279      -0.01302306
Au      20.19263052      12.34848026       0.01870633       0.00333053      -0.00132345      -0.00917224
Au      23.01759518      12.34866171       0.01790988       0.00102350      -0.00190748      -0.00976003
Au      25.83226277      12.34924507       0.01515980      -0.00120052      -0.00594322      -0.01195071
Au       0.45735133      12.34891507       0.01225172      -0.00314122      -0.00121058      -0.01295593
Au       3.27191696      12.34920109       0.00761268       0.00461172      -0.00292126      -0.01384040
Au       6.09792880      12.34822982       0.00696872      -0.00642732       0.00439913      -0.01651790
Au       7.50463631      13.18066877       2.65533248       0.00784591       0.00330795       0.00008406
Au      10.32560438      13.18468954       2.55011473      -0.00722529      -0.00403994       0.01560214
Au      13.14447110      13.18217219       2.66335681       0.00647530       0.00156618      -0.01412958
Au      15.96567542      13.18558913       2.55834460      -0.00525946      -0.00529252       0.01134673
Au      18.78504102      13.18195145       2.66863524       0.00466131       0.00714772      -0.01998810
Au      21.60599080      13.18469858       2.56076957      -0.00697126       0.00014359       0.00686172
Au      24.42565653      13.18051921       2.66739190      -0.00048098       0.01514639      -0.01463934
Au      27.24556069      13.18379538       2.55496416      -0.00107342       0.00335813       0.01195905
Au       1.86589217      13.18023729       2.65964291      -0.00185348       0.00831258      -0.00479449
Au       4.68588837      13.18349725       2.54712955      -0.00614356       0.00222589       0.01689515
Au       8.91613942      15.64255353       2.63541848      -0.00713489       0.00138123       0.00601645
Au      11.73368461      15.64338744       2.63575987       0.00847714      -0.00248766       0.00211606
Au      14.55614645      15.64449935       2.63456473      -0.00933955      -0.00722451       0.00686982
Au      17.37373990      15.64444373       2.63954224       0.01109390      -0.00757662      -0.00125768
Au      20.19628352      15.64410402       2.64160305      -0.00888542      -0.00958228       0.00200107
Au      23.01344758      15.64378751       2.64560988       0.01902657      -0.00791680      -0.01013423
Au      25.83736031      15.64329921       2.64482314      -0.01923006      -0.00847055       0.00135905
Au       0.45349774      15.64228981       2.64391425       0.01650522       0.00147736      -0.00646206
Au       3.27669787      15.64218376       2.64093019      -0.00943528      -0.00136044       0.00278739
Au       6.09419183      15.64163461       2.63822290       0.00396240       0.00456772       0.00258925
Au       7.50573054      18.09547396       2.69316539       0.00191567      -0.00724492      -0.01130835
Au      10.32582195      18.11432104       2.60165430      -0.00537087       0.00995230       0.01386540
Au      13.14535616      18.09593555       2.68239951       0.00004149      -0.00100722      -0.00670785
Au      15.96511193      18.11501665       2.59782642      -0.00129506       0.01155351       0.01754941
Au      18.78448284      18.09589632       2.68775973       0.00364536      -0.00134173      -0.01052671
Au      21.60534630      18.11445184       2.60773260      -0.00219136       0.01339172       0.00816754
Au      24.42550258      18.09588089       2.69679311      -0.00325938      -0.00397700      -0.01198509
Au      27.24517839      18.11452429       2.61373465       0.00526697       0.00785266       0.00385698
Au       1.86593619      18.09570055       2.69866769      -0.00483259      -0.00769348      -0.01212794
Au       4.68584906      18.11391552       2.61291813      -0.00103562       0.00721327       0.00298886
Au       8.91734245      20.57709037       2.71374871       0.00080721      -0.00878727       0.00287705
Au      11.73386921      20.57733605       2.70589229       0.00044498      -0.00770292       0.00589405
Au      14.55667402      20.57754385       2.70163358       0.00144011      -0.00996901       0.01447114
Au      17.37346986      20.57744641       2.70481667      -0.00565788      -0.00904016       0.00792722
Au      20.19584406      20.57738830       2.70924594       0.00741957      -0.01159274       0.00524857
Au      23.01330783      20.57732985       2.71615330      -0.00146037      -0.00957510      -0.00268359
Au      25.83669019      20.57727748       2.71784326      -0.00060468      -0.00823661       0.00277337
Au       0.45332854      20.57710534       2.72113366       0.00214552      -0.00298471      -0.00382897
Au       3.27673505      20.57712732       2.72103138       0.00282366      -0.00626632       0.00054793
Au       6.09433664      20.57664465       2.71931399      -0.00540500      -0.00216805      -0.00232814
Au       7.50586278      23.03870365       2.68648725       0.00062306       0.00197335       0.00689604
Au      10.32623214      23.06162237       2.68191617       0.00012885       0.01045379       0.00558527
Au      13.14615679      23.03847853       2.67686744      -0.00667609       0.00449948       0.00615578
Au      15.96450247      23.06210895       2.67604014       0.00599738       0.00704545       0.01112464
Au      18.78470440      23.03773043       2.67933747       0.00028461       0.01224247       0.00605839
Au      21.60493044      23.06175378       2.68496340      -0.00259544       0.01119884      -0.00123951
Au      24.42510379      23.03830986       2.68736851      -0.00336247       0.00453110       0.00074086
Au      27.24437447      23.06225275       2.68887865       0.00615448       0.00593099       0.00180295
Au       1.86559074      23.03927453       2.69042126      -0.00516202      -0.00570569       0.00049525
Au       4.68558084      23.06222619       2.69074755       0.00069721       0.00455185      -0.00077994
Au       8.91709588      25.52815054       2.71711029      -0.00687854      -0.00692201       0.00221947
Au      11.73369867      25.52809935       2.71454007       0.00903401      -0.00603524       0.00205123
Au      14.55683448      25.52783029       2.71262447      -0.01025591      -0.00717189       0.00369904
Au      17.37296397      25.52834700       2.71388687       0.01012004      -0.00882590       0.00362312
Au      20.19598139      25.52823883       2.71690424      -0.00298709      -0.01167378      -0.00245019
Au      23.01364680      25.52833702       2.71806647      -0.00070989      -0.00736219       0.00238897
Au      25.83565390      25.52798233       2.71897753       0.00382912      -0.00608690      -0.00010690
Au       0.45416094      25.52773922       2.71922970      -0.00779235       0.00283743       0.00187345
Au       3.27540066      25.52793483       2.71989629       0.00961921      -0.00256996       0.00031971
Au       6.09427860      25.52790010       2.71932385      -0.00267177       0.00031379       0.00345610
Au       7.50514958      27.99101717       2.61715580       0.00169454       0.00161316       0.00409494
Au      10.32563766      28.00494111       2.70016128      -0.00097656       0.01977125      -0.00695559
Au      13.14613973      27.99068519       2.61612533      -0.00920342       0.00722432       0.00695522
Au      15.96449769      28.00493642       2.70081389       0.00934014       0.02195616      -0.00851882
Au      18.78548308      27.99071042       2.61805417      -0.00509286       0.00735750       0.00144168
Au      21.60511184      28.00533710       2.70123691       0.00214851       0.01746573      -0.00930888
Au      24.42568079      27.99046068       2.61786553      -0.00752760       0.00940695       0.00157619
Au      27.24436316      28.00596574       2.69967547       0.01053292       0.00603433      -0.00575048
Au       1.86594102      27.99052993       2.61681756      -0.01023288       0.00693751       0.00152245
Au       4.68517674      28.00582405       2.69930174       0.00157658       0.00691088      -0.00524940
Au       8.91426874      30.46291612       2.64460583       0.00768316      -0.00884691      -0.00456344
Au      11.73434259      30.46317308       2.64604412      -0.00087791      -0.00913712      -0.00057670
Au      14.55484805      30.46314809       2.64667466       0.00338110      -0.00948566      -0.00477472
Au      17.37515898      30.46336855       2.64770545      -0.00850834      -0.01061780      -0.00076026
Au      20.19441587      30.46324438       2.64670393       0.00805156      -0.01250311      -0.00557561
Au      23.01492560      30.46334384       2.64619707      -0.00510799      -0.01339625       0.00169884
Au      25.83474208      30.46286304       2.64447849       0.00153117      -0.00891306      -0.00238805
Au       0.45449767      30.46278026       2.64410040       0.00074075      -0.00687522       0.00140443
Au       3.27465877      30.46265523       2.64263441       0.00287960      -0.00725223      -0.00197358
Au       6.09489765      30.46261474       2.64317234      -0.00571721      -0.00449489       0.00369249
Au       7.50493679      32.92439527       2.55653883       0.00014684       0.00225375       0.00715360
Au      10.32507511      32.92148764       2.66624099      -0.00016236       0.00318805      -0.00805918
Au      13.14576991      32.92462410       2.55959313      -0.00867153       0.00132287       0.00470843
Au      15.96470436      32.92181657       2.66854127       0.00672739       0.00164100      -0.00812832
Au      18.78558444      32.92453583       2.56030220      -0.00455046       0.00368863       0.00540522
Au      21.60536870      32.92109701       2.66862936       0.00021080       0.00971888      -0.00967958
Au      24.42556116      32.92407895       2.55925410      -0.00324757       0.00782415       0.00393710
Au      27.24475905      32.92114567       2.66667750       0.00625998       0.00605598      -0.00704072
Au       1.86569259      32.92422582       2.55717663      -0.00640698       0.00463899       0.00298240
Au       4.68523903      32.92097836       2.66480542       0.00008560       0.00676800      -0.00681664
Au       8.91306154      35.38303163       2.64307664       0.00855760      -0.00045493      -0.00418017
Au      11.73537058      35.38327524       2.64434582      -0.00321582      -0.00314282       0.00120615
Au      14.55353353      35.38313225       2.64472314       0.00413408       0.00137611      -0.00375084
Au      17.37594977      35.38331189       2.64579878      -0.00823560      -0.00253940       0.00142758
Au      20.19294367      35.38341927       2.64538374       0.01293790      -0.00338956      -0.00531570
Au      23.01615646      35.38339050       2.64580736      -0.00773932      -0.00571461       0.00075666
Au      25.83381906      35.38354571       2.64437691       0.00123397      -0.00654472      -0.00357549
Au       0.45545531      35.38338447       2.64445494       0.00135561      -0.00631618       0.00108535
Au       3.27357235      35.38336120       2.64272593       0.00406941      -0.00507057      -0.00387701
Au       6.09608010      35.38345697       2.64276425      -0.00863668      -0.00746174       0.00398735
Au       7.50484692      37.85470692       2.61092345       0.00295987       0.00767199       0.00512772
Au      10.32522761      37.83589871       2.69558998      -0.00283415      -0.00208610      -0.00488883
Au      13.14526146      37.85469937       2.61165790      -0.00281288       0.00586197       0.00323376
Au      15.96495622      37.83604432       2.69631596       0.00119943      -0.00301837      -0.00443602
Au      18.78516182      37.85485341       2.61151145       0.00040440       0.00486575       0.00538740
Au      21.60547099      37.83572707       2.69685137      -0.00259865       0.00212943      -0.00659031
Au      24.42547640      37.85493279       2.61169758      -0.00112366       0.00505581       0.00368658
Au      27.24494804      37.83535268       2.69603891       0.00426837       0.00764802      -0.00389111
Au       1.86569472      37.85498588       2.61134026      -0.00465922       0.00595636       0.00141692
Au       4.68539986      37.83535319       2.69516582      -0.00180905       0.00614047      -0.00389572
Au       8.91284332       0.83738147       2.71873436       0.00303956      -0.00202638      -0.00316590
Au      11.73608359       0.83731694       2.71875085       0.00167980      -0.00537611       0.00006991
Au      14.55317908       0.83730282       2.71808447      -0.00000555      -0.00134266      -0.00265387
Au      17.37665748       0.83709771       2.71764910      -0.00634451      -0.00279541       0.00204104
Au      20.19228169       0.83754786       2.71772536       0.01206071      -0.00540895      -0.00389484
Au      23.01726925       0.83724340       2.71772535      -0.01183858      -0.00678297       0.00113363
Au      25.83295654       0.83800669       2.71753617       0.00438468      -0.01164193      -0.00149801
Au       0.45643348       0.83782422       2.71785070      -0.00032816      -0.01366888       0.00016598
Au       3.27295733       0.83786395       2.71801710       0.00351299      -0.00800454      -0.00288846
Au       6.09683069       0.83793576       2.71800617      -0.00473034      -0.01368667       0.00263718
Au       7.50444341       3.32275486       2.68907602       0.00993928       0.00607338       0.00329800
Au      10.32566346       3.29976592       2.68940340      -0.00692132      -0.00650946      -0.00276036
Au      13.14534716       3.32257001       2.69028987       0.00014262       0.00505142      -0.00043253
Au      15.96528386       3.29976461       2.68820697       0.00025853      -0.01231469       0.00066972